/*--------------------------------*- C++ -*----------------------------------*\
| =========                 |                                                 |
| \\      /  F ield         | OpenFOAM: The Open Source CFD Toolbox           |
|  \\    /   O peration     | Version:  4.1                                   |
|   \\  /    A nd           | Web:      www.OpenFOAM.org                      |
|    \\/     M anipulation  |                                                 |
\*---------------------------------------------------------------------------*/
FoamFile
{
    version     2.0;
    format      ascii;
    class       volVectorField;
    location    "0.95";
    object      U;
}
// * * * * * * * * * * * * * * * * * * * * * * * * * * * * * * * * * * * * * //

dimensions      [0 1 -1 0 0 0 0];

internalField   nonuniform List<vector> 
400
(
(-65.1616 -65.1616 0)
(-3.48953 -68.894 0)
(-3.59227 -72.8153 0)
(-3.6137 -76.8615 0)
(-3.5189 -80.9286 0)
(-3.27151 -84.8648 0)
(-2.84169 -88.4678 0)
(-2.21729 -91.4963 0)
(-1.41523 -93.6991 0)
(-0.487019 -94.8626 0)
(0.487019 -94.8626 0)
(1.41523 -93.6991 0)
(2.21729 -91.4963 0)
(2.84169 -88.4678 0)
(3.27151 -84.8648 0)
(3.5189 -80.9286 0)
(3.6137 -76.8615 0)
(3.59227 -72.8153 0)
(3.48953 -68.894 0)
(65.1616 -65.1616 0)
(-68.894 -3.48953 0)
(-4.16417 -4.16417 0)
(-4.37519 -4.97056 0)
(-4.49961 -5.91783 0)
(-4.48445 -7.00006 0)
(-4.26772 -8.18452 0)
(-3.78982 -9.39901 0)
(-3.01398 -10.5252 0)
(-1.95108 -11.4098 0)
(-0.676494 -11.9005 0)
(0.676494 -11.9005 0)
(1.95108 -11.4098 0)
(3.01398 -10.5252 0)
(3.78982 -9.39901 0)
(4.26772 -8.18452 0)
(4.48445 -7.00006 0)
(4.49961 -5.91783 0)
(4.37519 -4.97056 0)
(4.16417 -4.16417 0)
(68.894 -3.48953 0)
(-72.8153 -3.59227 0)
(-4.97056 -4.37519 0)
(-5.34592 -5.34592 0)
(-5.64319 -6.53488 0)
(-5.78559 -7.95819 0)
(-5.67047 -9.59703 0)
(-5.18242 -11.3682 0)
(-4.22807 -13.096 0)
(-2.7905 -14.5129 0)
(-0.977744 -15.3225 0)
(0.977744 -15.3225 0)
(2.7905 -14.5129 0)
(4.22807 -13.096 0)
(5.18242 -11.3682 0)
(5.67047 -9.59703 0)
(5.78559 -7.95819 0)
(5.64319 -6.53488 0)
(5.34592 -5.34592 0)
(4.97056 -4.37519 0)
(72.8153 -3.59227 0)
(-76.8615 -3.6137 0)
(-5.91783 -4.49961 0)
(-6.53488 -5.64319 0)
(-7.11187 -7.11187 0)
(-7.5466 -8.96968 0)
(-7.67771 -11.247 0)
(-7.28877 -13.8817 0)
(-6.15871 -16.6358 0)
(-4.17764 -19.0387 0)
(-1.48612 -20.4733 0)
(1.48612 -20.4733 0)
(4.17764 -19.0387 0)
(6.15871 -16.6358 0)
(7.28877 -13.8817 0)
(7.67771 -11.247 0)
(7.5466 -8.96968 0)
(7.11187 -7.11187 0)
(6.53488 -5.64319 0)
(5.91783 -4.49961 0)
(76.8615 -3.6137 0)
(-80.9286 -3.5189 0)
(-7.00006 -4.48445 0)
(-7.95819 -5.78559 0)
(-8.96968 -7.5466 0)
(-9.92072 -9.92072 0)
(-10.5825 -13.0613 0)
(-10.5712 -17.0298 0)
(-9.38501 -21.5952 0)
(-6.62802 -25.9626 0)
(-2.41242 -28.7578 0)
(2.41242 -28.7578 0)
(6.62802 -25.9626 0)
(9.38501 -21.5952 0)
(10.5712 -17.0298 0)
(10.5825 -13.0613 0)
(9.92072 -9.92072 0)
(8.96968 -7.5466 0)
(7.95819 -5.78559 0)
(7.00006 -4.48445 0)
(80.9286 -3.5189 0)
(-84.8648 -3.27151 0)
(-8.18452 -4.26772 0)
(-9.59703 -5.67047 0)
(-11.247 -7.67771 0)
(-13.0613 -10.5825 0)
(-14.7868 -14.7868 0)
(-15.8227 -20.7308 0)
(-15.0915 -28.5464 0)
(-11.3402 -37.1679 0)
(-4.28129 -43.378 0)
(4.28129 -43.378 0)
(11.3402 -37.1679 0)
(15.0915 -28.5464 0)
(15.8227 -20.7308 0)
(14.7868 -14.7868 0)
(13.0613 -10.5825 0)
(11.247 -7.67771 0)
(9.59703 -5.67047 0)
(8.18452 -4.26772 0)
(84.8648 -3.27151 0)
(-88.4678 -2.84169 0)
(-9.39901 -3.78982 0)
(-11.3682 -5.18242 0)
(-13.8817 -7.28877 0)
(-17.0298 -10.5712 0)
(-20.7308 -15.8227 0)
(-24.3308 -24.3308 0)
(-25.8221 -37.7579 0)
(-21.4596 -56.3386 0)
(-8.62258 -73.0428 0)
(8.62258 -73.0428 0)
(21.4596 -56.3386 0)
(25.8221 -37.7579 0)
(24.3308 -24.3308 0)
(20.7308 -15.8227 0)
(17.0298 -10.5712 0)
(13.8817 -7.28877 0)
(11.3682 -5.18242 0)
(9.39901 -3.78982 0)
(88.4678 -2.84169 0)
(-91.4963 -2.21729 0)
(-10.5252 -3.01398 0)
(-13.096 -4.22807 0)
(-16.6358 -6.15871 0)
(-21.5952 -9.38501 0)
(-28.5464 -15.0915 0)
(-37.7579 -25.8221 0)
(-47.0993 -47.0993 0)
(-46.6252 -88.9934 0)
(-20.9855 -149.016 0)
(20.9855 -149.016 0)
(46.6252 -88.9934 0)
(47.0993 -47.0993 0)
(37.7579 -25.8221 0)
(28.5464 -15.0915 0)
(21.5952 -9.38501 0)
(16.6358 -6.15871 0)
(13.096 -4.22807 0)
(10.5252 -3.01398 0)
(91.4963 -2.21729 0)
(-93.6991 -1.41523 0)
(-11.4098 -1.95108 0)
(-14.5129 -2.7905 0)
(-19.0387 -4.17764 0)
(-25.9626 -6.62802 0)
(-37.1679 -11.3402 0)
(-56.3386 -21.4596 0)
(-88.9934 -46.6252 0)
(-123.376 -123.376 0)
(-68.6449 -435.6 0)
(68.6449 -435.6 0)
(123.376 -123.376 0)
(88.9934 -46.6252 0)
(56.3386 -21.4596 0)
(37.1679 -11.3402 0)
(25.9626 -6.62802 0)
(19.0387 -4.17764 0)
(14.5129 -2.7905 0)
(11.4098 -1.95108 0)
(93.6991 -1.41523 0)
(-94.8626 -0.487019 0)
(-11.9005 -0.676494 0)
(-15.3225 -0.977744 0)
(-20.4733 -1.48612 0)
(-28.7578 -2.41242 0)
(-43.378 -4.28129 0)
(-73.0428 -8.62258 0)
(-149.016 -20.9855 0)
(-435.6 -68.6449 0)
(-333.209 -333.209 0)
(333.209 -333.209 0)
(435.6 -68.6449 0)
(149.016 -20.9855 0)
(73.0428 -8.62258 0)
(43.378 -4.28129 0)
(28.7578 -2.41242 0)
(20.4733 -1.48612 0)
(15.3225 -0.977744 0)
(11.9005 -0.676494 0)
(94.8626 -0.487019 0)
(-94.8626 0.487019 0)
(-11.9005 0.676494 0)
(-15.3225 0.977744 0)
(-20.4733 1.48612 0)
(-28.7578 2.41242 0)
(-43.378 4.28129 0)
(-73.0428 8.62258 0)
(-149.016 20.9855 0)
(-435.6 68.6449 0)
(-333.209 333.209 0)
(333.209 333.209 0)
(435.6 68.6449 0)
(149.016 20.9855 0)
(73.0428 8.62258 0)
(43.378 4.28129 0)
(28.7578 2.41242 0)
(20.4733 1.48612 0)
(15.3225 0.977744 0)
(11.9005 0.676494 0)
(94.8626 0.487019 0)
(-93.6991 1.41523 0)
(-11.4098 1.95108 0)
(-14.5129 2.7905 0)
(-19.0387 4.17764 0)
(-25.9626 6.62802 0)
(-37.1679 11.3402 0)
(-56.3386 21.4596 0)
(-88.9934 46.6252 0)
(-123.376 123.376 0)
(-68.6449 435.6 0)
(68.6449 435.6 0)
(123.376 123.376 0)
(88.9934 46.6252 0)
(56.3386 21.4596 0)
(37.1679 11.3402 0)
(25.9626 6.62802 0)
(19.0387 4.17764 0)
(14.5129 2.7905 0)
(11.4098 1.95108 0)
(93.6991 1.41523 0)
(-91.4963 2.21729 0)
(-10.5252 3.01398 0)
(-13.096 4.22807 0)
(-16.6358 6.15871 0)
(-21.5952 9.38501 0)
(-28.5464 15.0915 0)
(-37.7579 25.8221 0)
(-47.0993 47.0993 0)
(-46.6252 88.9934 0)
(-20.9855 149.016 0)
(20.9855 149.016 0)
(46.6252 88.9934 0)
(47.0993 47.0993 0)
(37.7579 25.8221 0)
(28.5464 15.0915 0)
(21.5952 9.38501 0)
(16.6358 6.15871 0)
(13.096 4.22807 0)
(10.5252 3.01398 0)
(91.4963 2.21729 0)
(-88.4678 2.84169 0)
(-9.39901 3.78982 0)
(-11.3682 5.18242 0)
(-13.8817 7.28877 0)
(-17.0298 10.5712 0)
(-20.7308 15.8227 0)
(-24.3308 24.3308 0)
(-25.8221 37.7579 0)
(-21.4596 56.3386 0)
(-8.62258 73.0428 0)
(8.62258 73.0428 0)
(21.4596 56.3386 0)
(25.8221 37.7579 0)
(24.3308 24.3308 0)
(20.7308 15.8227 0)
(17.0298 10.5712 0)
(13.8817 7.28877 0)
(11.3682 5.18242 0)
(9.39901 3.78982 0)
(88.4678 2.84169 0)
(-84.8648 3.27151 0)
(-8.18452 4.26772 0)
(-9.59703 5.67047 0)
(-11.247 7.67771 0)
(-13.0613 10.5825 0)
(-14.7868 14.7868 0)
(-15.8227 20.7308 0)
(-15.0915 28.5464 0)
(-11.3402 37.1679 0)
(-4.28129 43.378 0)
(4.28129 43.378 0)
(11.3402 37.1679 0)
(15.0915 28.5464 0)
(15.8227 20.7308 0)
(14.7868 14.7868 0)
(13.0613 10.5825 0)
(11.247 7.67771 0)
(9.59703 5.67047 0)
(8.18452 4.26772 0)
(84.8648 3.27151 0)
(-80.9286 3.5189 0)
(-7.00006 4.48445 0)
(-7.95819 5.78559 0)
(-8.96968 7.5466 0)
(-9.92072 9.92072 0)
(-10.5825 13.0613 0)
(-10.5712 17.0298 0)
(-9.38501 21.5952 0)
(-6.62802 25.9626 0)
(-2.41242 28.7578 0)
(2.41242 28.7578 0)
(6.62802 25.9626 0)
(9.38501 21.5952 0)
(10.5712 17.0298 0)
(10.5825 13.0613 0)
(9.92072 9.92072 0)
(8.96968 7.5466 0)
(7.95819 5.78559 0)
(7.00006 4.48445 0)
(80.9286 3.5189 0)
(-76.8615 3.6137 0)
(-5.91783 4.49961 0)
(-6.53488 5.64319 0)
(-7.11187 7.11187 0)
(-7.5466 8.96968 0)
(-7.67771 11.247 0)
(-7.28877 13.8817 0)
(-6.15871 16.6358 0)
(-4.17764 19.0387 0)
(-1.48612 20.4733 0)
(1.48612 20.4733 0)
(4.17764 19.0387 0)
(6.15871 16.6358 0)
(7.28877 13.8817 0)
(7.67771 11.247 0)
(7.5466 8.96968 0)
(7.11187 7.11187 0)
(6.53488 5.64319 0)
(5.91783 4.49961 0)
(76.8615 3.6137 0)
(-72.8153 3.59227 0)
(-4.97056 4.37519 0)
(-5.34592 5.34592 0)
(-5.64319 6.53488 0)
(-5.78559 7.95819 0)
(-5.67047 9.59703 0)
(-5.18242 11.3682 0)
(-4.22807 13.096 0)
(-2.7905 14.5129 0)
(-0.977744 15.3225 0)
(0.977744 15.3225 0)
(2.7905 14.5129 0)
(4.22807 13.096 0)
(5.18242 11.3682 0)
(5.67047 9.59703 0)
(5.78559 7.95819 0)
(5.64319 6.53488 0)
(5.34592 5.34592 0)
(4.97056 4.37519 0)
(72.8153 3.59227 0)
(-68.894 3.48953 0)
(-4.16417 4.16417 0)
(-4.37519 4.97056 0)
(-4.49961 5.91783 0)
(-4.48445 7.00006 0)
(-4.26772 8.18452 0)
(-3.78982 9.39901 0)
(-3.01398 10.5252 0)
(-1.95108 11.4098 0)
(-0.676494 11.9005 0)
(0.676494 11.9005 0)
(1.95108 11.4098 0)
(3.01398 10.5252 0)
(3.78982 9.39901 0)
(4.26772 8.18452 0)
(4.48445 7.00006 0)
(4.49961 5.91783 0)
(4.37519 4.97056 0)
(4.16417 4.16417 0)
(68.894 3.48953 0)
(-65.1616 65.1616 0)
(-3.48953 68.894 0)
(-3.59227 72.8153 0)
(-3.6137 76.8615 0)
(-3.5189 80.9286 0)
(-3.27151 84.8648 0)
(-2.84169 88.4678 0)
(-2.21729 91.4963 0)
(-1.41523 93.6991 0)
(-0.487019 94.8626 0)
(0.487019 94.8626 0)
(1.41523 93.6991 0)
(2.21729 91.4963 0)
(2.84169 88.4678 0)
(3.27151 84.8648 0)
(3.5189 80.9286 0)
(3.6137 76.8615 0)
(3.59227 72.8153 0)
(3.48953 68.894 0)
(65.1616 65.1616 0)
)
;

boundaryField
{
    movingWall
    {
        type            fixedValue;
        value           uniform (1 0 0);
    }
    fixedWalls
    {
        type            fixedValue;
        value           uniform (0 0 0);
    }
    frontAndBack
    {
        type            empty;
    }
}


// ************************************************************************* //
