/*--------------------------------*- C++ -*----------------------------------*\
| =========                 |                                                 |
| \\      /  F ield         | OpenFOAM: The Open Source CFD Toolbox           |
|  \\    /   O peration     | Version:  4.1                                   |
|   \\  /    A nd           | Web:      www.OpenFOAM.org                      |
|    \\/     M anipulation  |                                                 |
\*---------------------------------------------------------------------------*/
FoamFile
{
    version     2.0;
    format      ascii;
    class       volVectorField;
    location    "0.9";
    object      U;
}
// * * * * * * * * * * * * * * * * * * * * * * * * * * * * * * * * * * * * * //

dimensions      [0 1 -1 0 0 0 0];

internalField   nonuniform List<vector> 
400
(
(-123.945 -123.945 0)
(-6.63748 -131.044 0)
(-6.8329 -138.503 0)
(-6.87366 -146.199 0)
(-6.69334 -153.935 0)
(-6.22279 -161.422 0)
(-5.40521 -168.276 0)
(-4.21754 -174.036 0)
(-2.69193 -178.226 0)
(-0.926364 -180.439 0)
(0.926364 -180.439 0)
(2.69193 -178.226 0)
(4.21754 -174.036 0)
(5.40521 -168.276 0)
(6.22279 -161.422 0)
(6.69334 -153.935 0)
(6.87366 -146.199 0)
(6.8329 -138.503 0)
(6.63748 -131.044 0)
(123.945 -123.945 0)
(-131.044 -6.63748 0)
(-7.92073 -7.92073 0)
(-8.3221 -9.45457 0)
(-8.55876 -11.2564 0)
(-8.52994 -13.3149 0)
(-8.11768 -15.5679 0)
(-7.20867 -17.878 0)
(-5.73292 -20.0202 0)
(-3.71117 -21.7027 0)
(-1.28677 -22.6361 0)
(1.28677 -22.6361 0)
(3.71117 -21.7027 0)
(5.73292 -20.0202 0)
(7.20867 -17.878 0)
(8.11768 -15.5679 0)
(8.52994 -13.3149 0)
(8.55876 -11.2564 0)
(8.3221 -9.45457 0)
(7.92073 -7.92073 0)
(131.044 -6.63748 0)
(-138.503 -6.8329 0)
(-9.45457 -8.3221 0)
(-10.1686 -10.1686 0)
(-10.734 -12.4301 0)
(-11.0048 -15.1374 0)
(-10.7859 -18.2546 0)
(-9.85754 -21.6236 0)
(-8.04226 -24.91 0)
(-5.30784 -27.6052 0)
(-1.85978 -29.1452 0)
(1.85978 -29.1452 0)
(5.30784 -27.6052 0)
(8.04226 -24.91 0)
(9.85754 -21.6236 0)
(10.7859 -18.2546 0)
(11.0048 -15.1374 0)
(10.734 -12.4301 0)
(10.1686 -10.1686 0)
(9.45457 -8.3221 0)
(138.503 -6.8329 0)
(-146.199 -6.87366 0)
(-11.2564 -8.55876 0)
(-12.4301 -10.734 0)
(-13.5276 -13.5276 0)
(-14.3545 -17.0614 0)
(-14.6039 -21.3931 0)
(-13.8641 -26.4046 0)
(-11.7146 -31.6432 0)
(-7.94635 -36.2137 0)
(-2.82677 -38.9426 0)
(2.82677 -38.9426 0)
(7.94635 -36.2137 0)
(11.7146 -31.6432 0)
(13.8641 -26.4046 0)
(14.6039 -21.3931 0)
(14.3545 -17.0614 0)
(13.5276 -13.5276 0)
(12.4301 -10.734 0)
(11.2564 -8.55876 0)
(146.199 -6.87366 0)
(-153.935 -6.69334 0)
(-13.3149 -8.52994 0)
(-15.1374 -11.0048 0)
(-17.0614 -14.3545 0)
(-18.8703 -18.8703 0)
(-20.1291 -24.8441 0)
(-20.1077 -32.3927 0)
(-17.8513 -41.0765 0)
(-12.6072 -49.3839 0)
(-4.58869 -54.7006 0)
(4.58869 -54.7006 0)
(12.6072 -49.3839 0)
(17.8513 -41.0765 0)
(20.1077 -32.3927 0)
(20.1291 -24.8441 0)
(18.8703 -18.8703 0)
(17.0614 -14.3545 0)
(15.1374 -11.0048 0)
(13.3149 -8.52994 0)
(153.935 -6.69334 0)
(-161.422 -6.22279 0)
(-15.5679 -8.11768 0)
(-18.2546 -10.7859 0)
(-21.3931 -14.6039 0)
(-24.8441 -20.1291 0)
(-28.1262 -28.1262 0)
(-30.0965 -39.4323 0)
(-28.7058 -54.2985 0)
(-21.5704 -70.6975 0)
(-8.1435 -82.5099 0)
(8.1435 -82.5099 0)
(21.5704 -70.6975 0)
(28.7058 -54.2985 0)
(30.0965 -39.4323 0)
(28.1262 -28.1262 0)
(24.8441 -20.1291 0)
(21.3931 -14.6039 0)
(18.2546 -10.7859 0)
(15.5679 -8.11768 0)
(161.422 -6.22279 0)
(-168.276 -5.40521 0)
(-17.878 -7.20867 0)
(-21.6236 -9.85754 0)
(-26.4046 -13.8641 0)
(-32.3927 -20.1077 0)
(-39.4323 -30.0965 0)
(-46.28 -46.28 0)
(-49.1165 -71.8197 0)
(-40.8186 -107.162 0)
(-16.4011 -138.936 0)
(16.4011 -138.936 0)
(40.8186 -107.162 0)
(49.1165 -71.8197 0)
(46.28 -46.28 0)
(39.4323 -30.0965 0)
(32.3927 -20.1077 0)
(26.4046 -13.8641 0)
(21.6236 -9.85754 0)
(17.878 -7.20867 0)
(168.276 -5.40521 0)
(-174.036 -4.21754 0)
(-20.0202 -5.73292 0)
(-24.91 -8.04226 0)
(-31.6432 -11.7146 0)
(-41.0765 -17.8513 0)
(-54.2985 -28.7058 0)
(-71.8197 -49.1165 0)
(-89.5882 -89.5882 0)
(-88.6864 -169.276 0)
(-39.9168 -283.445 0)
(39.9168 -283.445 0)
(88.6864 -169.276 0)
(89.5882 -89.5882 0)
(71.8197 -49.1165 0)
(54.2985 -28.7058 0)
(41.0765 -17.8513 0)
(31.6432 -11.7146 0)
(24.91 -8.04226 0)
(20.0202 -5.73292 0)
(174.036 -4.21754 0)
(-178.226 -2.69193 0)
(-21.7027 -3.71117 0)
(-27.6052 -5.30784 0)
(-36.2137 -7.94635 0)
(-49.3839 -12.6072 0)
(-70.6975 -21.5704 0)
(-107.162 -40.8186 0)
(-169.276 -88.6864 0)
(-234.675 -234.675 0)
(-130.57 -828.56 0)
(130.57 -828.56 0)
(234.675 -234.675 0)
(169.276 -88.6864 0)
(107.162 -40.8186 0)
(70.6975 -21.5704 0)
(49.3839 -12.6072 0)
(36.2137 -7.94635 0)
(27.6052 -5.30784 0)
(21.7027 -3.71117 0)
(178.226 -2.69193 0)
(-180.439 -0.926364 0)
(-22.6361 -1.28677 0)
(-29.1452 -1.85978 0)
(-38.9426 -2.82677 0)
(-54.7006 -4.58869 0)
(-82.5099 -8.1435 0)
(-138.936 -16.4011 0)
(-283.445 -39.9168 0)
(-828.56 -130.57 0)
(-633.802 -633.802 0)
(633.802 -633.802 0)
(828.56 -130.57 0)
(283.445 -39.9168 0)
(138.936 -16.4011 0)
(82.5099 -8.1435 0)
(54.7006 -4.58869 0)
(38.9426 -2.82677 0)
(29.1452 -1.85978 0)
(22.6361 -1.28677 0)
(180.439 -0.926364 0)
(-180.439 0.926364 0)
(-22.6361 1.28677 0)
(-29.1452 1.85978 0)
(-38.9426 2.82677 0)
(-54.7006 4.58869 0)
(-82.5099 8.1435 0)
(-138.936 16.4011 0)
(-283.445 39.9168 0)
(-828.56 130.57 0)
(-633.802 633.802 0)
(633.802 633.802 0)
(828.56 130.57 0)
(283.445 39.9168 0)
(138.936 16.4011 0)
(82.5099 8.1435 0)
(54.7006 4.58869 0)
(38.9426 2.82677 0)
(29.1452 1.85978 0)
(22.6361 1.28677 0)
(180.439 0.926364 0)
(-178.226 2.69193 0)
(-21.7027 3.71117 0)
(-27.6052 5.30784 0)
(-36.2137 7.94635 0)
(-49.3839 12.6072 0)
(-70.6975 21.5704 0)
(-107.162 40.8186 0)
(-169.276 88.6864 0)
(-234.675 234.675 0)
(-130.57 828.56 0)
(130.57 828.56 0)
(234.675 234.675 0)
(169.276 88.6864 0)
(107.162 40.8186 0)
(70.6975 21.5704 0)
(49.3839 12.6072 0)
(36.2137 7.94635 0)
(27.6052 5.30784 0)
(21.7027 3.71117 0)
(178.226 2.69193 0)
(-174.036 4.21754 0)
(-20.0202 5.73292 0)
(-24.91 8.04226 0)
(-31.6432 11.7146 0)
(-41.0765 17.8513 0)
(-54.2985 28.7058 0)
(-71.8197 49.1165 0)
(-89.5882 89.5882 0)
(-88.6864 169.276 0)
(-39.9168 283.445 0)
(39.9168 283.445 0)
(88.6864 169.276 0)
(89.5882 89.5882 0)
(71.8197 49.1165 0)
(54.2985 28.7058 0)
(41.0765 17.8513 0)
(31.6432 11.7146 0)
(24.91 8.04226 0)
(20.0202 5.73292 0)
(174.036 4.21754 0)
(-168.276 5.40521 0)
(-17.878 7.20867 0)
(-21.6236 9.85754 0)
(-26.4046 13.8641 0)
(-32.3927 20.1077 0)
(-39.4323 30.0965 0)
(-46.28 46.28 0)
(-49.1165 71.8197 0)
(-40.8186 107.162 0)
(-16.4011 138.936 0)
(16.4011 138.936 0)
(40.8186 107.162 0)
(49.1165 71.8197 0)
(46.28 46.28 0)
(39.4323 30.0965 0)
(32.3927 20.1077 0)
(26.4046 13.8641 0)
(21.6236 9.85754 0)
(17.878 7.20867 0)
(168.276 5.40521 0)
(-161.422 6.22279 0)
(-15.5679 8.11768 0)
(-18.2546 10.7859 0)
(-21.3931 14.6039 0)
(-24.8441 20.1291 0)
(-28.1262 28.1262 0)
(-30.0965 39.4323 0)
(-28.7058 54.2985 0)
(-21.5704 70.6975 0)
(-8.1435 82.5099 0)
(8.1435 82.5099 0)
(21.5704 70.6975 0)
(28.7058 54.2985 0)
(30.0965 39.4323 0)
(28.1262 28.1262 0)
(24.8441 20.1291 0)
(21.3931 14.6039 0)
(18.2546 10.7859 0)
(15.5679 8.11768 0)
(161.422 6.22279 0)
(-153.935 6.69334 0)
(-13.3149 8.52994 0)
(-15.1374 11.0048 0)
(-17.0614 14.3545 0)
(-18.8703 18.8703 0)
(-20.1291 24.8441 0)
(-20.1077 32.3927 0)
(-17.8513 41.0765 0)
(-12.6072 49.3839 0)
(-4.58869 54.7006 0)
(4.58869 54.7006 0)
(12.6072 49.3839 0)
(17.8513 41.0765 0)
(20.1077 32.3927 0)
(20.1291 24.8441 0)
(18.8703 18.8703 0)
(17.0614 14.3545 0)
(15.1374 11.0048 0)
(13.3149 8.52994 0)
(153.935 6.69334 0)
(-146.199 6.87366 0)
(-11.2564 8.55876 0)
(-12.4301 10.734 0)
(-13.5276 13.5276 0)
(-14.3545 17.0614 0)
(-14.6039 21.3931 0)
(-13.8641 26.4046 0)
(-11.7146 31.6432 0)
(-7.94635 36.2137 0)
(-2.82677 38.9426 0)
(2.82677 38.9426 0)
(7.94635 36.2137 0)
(11.7146 31.6432 0)
(13.8641 26.4046 0)
(14.6039 21.3931 0)
(14.3545 17.0614 0)
(13.5276 13.5276 0)
(12.4301 10.734 0)
(11.2564 8.55876 0)
(146.199 6.87366 0)
(-138.503 6.8329 0)
(-9.45457 8.3221 0)
(-10.1686 10.1686 0)
(-10.734 12.4301 0)
(-11.0048 15.1374 0)
(-10.7859 18.2546 0)
(-9.85754 21.6236 0)
(-8.04226 24.91 0)
(-5.30784 27.6052 0)
(-1.85978 29.1452 0)
(1.85978 29.1452 0)
(5.30784 27.6052 0)
(8.04226 24.91 0)
(9.85754 21.6236 0)
(10.7859 18.2546 0)
(11.0048 15.1374 0)
(10.734 12.4301 0)
(10.1686 10.1686 0)
(9.45457 8.3221 0)
(138.503 6.8329 0)
(-131.044 6.63748 0)
(-7.92073 7.92073 0)
(-8.3221 9.45457 0)
(-8.55876 11.2564 0)
(-8.52994 13.3149 0)
(-8.11768 15.5679 0)
(-7.20867 17.878 0)
(-5.73292 20.0202 0)
(-3.71117 21.7027 0)
(-1.28677 22.6361 0)
(1.28677 22.6361 0)
(3.71117 21.7027 0)
(5.73292 20.0202 0)
(7.20867 17.878 0)
(8.11768 15.5679 0)
(8.52994 13.3149 0)
(8.55876 11.2564 0)
(8.3221 9.45457 0)
(7.92073 7.92073 0)
(131.044 6.63748 0)
(-123.945 123.945 0)
(-6.63748 131.044 0)
(-6.8329 138.503 0)
(-6.87366 146.199 0)
(-6.69334 153.935 0)
(-6.22279 161.422 0)
(-5.40521 168.276 0)
(-4.21754 174.036 0)
(-2.69193 178.226 0)
(-0.926364 180.439 0)
(0.926364 180.439 0)
(2.69193 178.226 0)
(4.21754 174.036 0)
(5.40521 168.276 0)
(6.22279 161.422 0)
(6.69334 153.935 0)
(6.87366 146.199 0)
(6.8329 138.503 0)
(6.63748 131.044 0)
(123.945 123.945 0)
)
;

boundaryField
{
    movingWall
    {
        type            fixedValue;
        value           uniform (1 0 0);
    }
    fixedWalls
    {
        type            fixedValue;
        value           uniform (0 0 0);
    }
    frontAndBack
    {
        type            empty;
    }
}


// ************************************************************************* //
