/*--------------------------------*- C++ -*----------------------------------*\
| =========                 |                                                 |
| \\      /  F ield         | OpenFOAM: The Open Source CFD Toolbox           |
|  \\    /   O peration     | Version:  3.0.0                                 |
|   \\  /    A nd           | Web:      www.OpenFOAM.org                      |
|    \\/     M anipulation  |                                                 |
\*---------------------------------------------------------------------------*/
FoamFile
{
    version     2.0;
    format      ascii;
    class       volScalarField;
    location    "275";
    object      epsilon;
}
// * * * * * * * * * * * * * * * * * * * * * * * * * * * * * * * * * * * * * //

dimensions      [0 2 -3 0 0 0 0];

internalField   nonuniform List<scalar> 
10000
(
17.8345
4.42055
1.9696
1.18932
0.845931
0.662767
0.552233
0.479632
0.42891
0.391733
0.36342
0.341197
0.323251
0.308438
0.295992
0.285377
0.276201
0.268179
0.261099
0.254797
0.249147
0.244041
0.239403
0.23516
0.231262
0.22766
0.224319
0.221205
0.218293
0.215556
0.212982
0.210548
0.208248
0.206064
0.203989
0.20201
0.200124
0.198319
0.196593
0.194936
0.193347
0.191817
0.190346
0.188928
0.18756
0.18624
0.184964
0.183731
0.182537
0.18138
0.180259
0.179172
0.178116
0.17709
0.176095
0.175126
0.174183
0.173267
0.172373
0.171503
0.170655
0.169828
0.16902
0.168234
0.167463
0.166713
0.165977
0.165261
0.164557
0.163872
0.163198
0.162541
0.161896
0.161265
0.160646
0.16004
0.159445
0.158863
0.15829
0.15773
0.157178
0.15664
0.156105
0.155589
0.155071
0.154577
0.154073
0.1536
0.153107
0.152659
0.152169
0.151764
0.151253
0.150897
0.150368
0.150087
0.14953
0.149357
0.14786
0.146978
8.01846
2.58014
1.09705
0.595408
0.383708
0.277735
0.217788
0.180772
0.156409
0.139594
0.127564
0.118728
0.112063
0.106939
0.102939
0.0997705
0.0972205
0.0951362
0.0934073
0.0919481
0.0906955
0.0895982
0.0886222
0.0877356
0.0869205
0.0861565
0.0854356
0.0847446
0.08408
0.0834318
0.0828038
0.0821873
0.0815864
0.0809956
0.0804168
0.0798475
0.0792897
0.0787404
0.0782032
0.0776738
0.0771559
0.0766463
0.0761482
0.0756586
0.0751796
0.07471
0.07425
0.0738
0.0733588
0.072927
0.0725043
0.0720905
0.0716854
0.071289
0.0709011
0.0705214
0.0701495
0.0697858
0.0694292
0.069081
0.0687389
0.0684051
0.0680771
0.0677568
0.0674418
0.0671343
0.0668316
0.0665364
0.0662452
0.0659618
0.0656814
0.0654092
0.065139
0.0648771
0.0646171
0.0643644
0.0641142
0.0638702
0.0636292
0.0633937
0.063161
0.062934
0.0627085
0.0624903
0.0622706
0.0620623
0.0618463
0.0616489
0.0614372
0.0612475
0.0610412
0.0608589
0.0606615
0.0604866
0.0602788
0.0600552
0.0599406
0.0600661
0.0616326
0.0676868
6.80494
2.36309
1.0206
0.534132
0.324283
0.219812
0.161655
0.126385
0.103551
0.0880068
0.0770088
0.0689938
0.0630123
0.0584704
0.0549743
0.0522537
0.0501216
0.0484421
0.0471165
0.0460681
0.0452385
0.0445801
0.0440587
0.0436428
0.0433119
0.0430441
0.0428277
0.0426469
0.0424962
0.0423628
0.0422457
0.0421355
0.0420322
0.0419307
0.0418297
0.0417266
0.0416221
0.0415134
0.0414029
0.041287
0.0411685
0.0410451
0.0409196
0.0407896
0.0406573
0.040522
0.0403848
0.0402457
0.0401043
0.0399618
0.0398182
0.0396737
0.0395286
0.0393834
0.0392381
0.0390928
0.0389477
0.0388034
0.0386592
0.0385164
0.0383735
0.0382326
0.0380918
0.037953
0.0378144
0.0376781
0.0375419
0.0374084
0.0372747
0.0371442
0.0370131
0.0368857
0.0367573
0.0366329
0.0365076
0.0363858
0.0362638
0.0361445
0.0360257
0.0359094
0.0357933
0.03568
0.0355662
0.0354565
0.0353442
0.0352389
0.0351272
0.0350269
0.0349169
0.0348198
0.0347122
0.0346194
0.0345172
0.0344304
0.0343275
0.0342083
0.0341696
0.0342252
0.0349817
0.039152
6.56563
2.35746
1.03922
0.542078
0.322468
0.212087
0.150646
0.113562
0.0897008
0.0735509
0.0621704
0.0538877
0.0477012
0.042984
0.0393278
0.0364566
0.0341794
0.0323607
0.0309021
0.0297283
0.0287841
0.028025
0.0274185
0.0269352
0.026555
0.0262574
0.02603
0.0258572
0.025732
0.0256421
0.0255834
0.0255465
0.0255284
0.0255249
0.0255292
0.0255409
0.0255573
0.0255749
0.0255949
0.0256126
0.0256293
0.0256424
0.0256533
0.0256598
0.0256626
0.0256612
0.0256565
0.0256473
0.0256335
0.0256162
0.025595
0.0255701
0.0255419
0.0255106
0.0254761
0.0254389
0.025399
0.0253569
0.0253123
0.025266
0.0252174
0.0251677
0.0251159
0.0250634
0.025009
0.0249543
0.0248977
0.0248413
0.0247829
0.0247254
0.0246657
0.0246075
0.0245469
0.024488
0.0244271
0.0243675
0.0243067
0.0242467
0.0241859
0.024126
0.0240653
0.0240058
0.023945
0.0238864
0.0238251
0.0237679
0.0237058
0.0236503
0.0235887
0.0235337
0.0234726
0.023419
0.0233619
0.0233092
0.0232524
0.0231776
0.0231517
0.023172
0.0236259
0.0271668
6.52812
2.39198
1.07335
0.563339
0.333553
0.216737
0.151362
0.11184
0.0864379
0.0692865
0.0572305
0.048472
0.0419346
0.0369445
0.033065
0.0300027
0.0275554
0.0255797
0.023973
0.0226581
0.0215783
0.0206892
0.0199573
0.0193545
0.018861
0.0184576
0.0181321
0.0178703
0.0176647
0.0175046
0.0173851
0.0172979
0.0172394
0.0172042
0.0171882
0.0171899
0.0172003
0.0172226
0.0172555
0.017292
0.0173331
0.0173769
0.0174233
0.0174692
0.0175154
0.0175601
0.0176041
0.0176457
0.0176844
0.017721
0.0177546
0.0177851
0.0178126
0.0178372
0.0178585
0.0178767
0.0178919
0.0179044
0.0179136
0.0179205
0.0179244
0.0179258
0.0179248
0.017922
0.0179163
0.0179091
0.0178992
0.0178884
0.0178748
0.0178609
0.017844
0.0178273
0.0178077
0.0177884
0.0177665
0.0177448
0.0177213
0.0176973
0.0176721
0.0176468
0.0176199
0.0175934
0.017565
0.0175377
0.0175077
0.0174799
0.0174485
0.0174202
0.0173885
0.0173592
0.0173266
0.017297
0.0172666
0.0172353
0.0172048
0.0171607
0.0171391
0.0171461
0.0174567
0.0207623
6.5363
2.42969
1.10595
0.585454
0.347363
0.224923
0.155867
0.113964
0.0869958
0.0687795
0.0559785
0.046687
0.0397568
0.0344679
0.0303533
0.0270996
0.0244913
0.0223758
0.0206437
0.0192139
0.0180266
0.0170352
0.0162052
0.0155078
0.0149224
0.0144301
0.0140179
0.0136729
0.0133869
0.0131503
0.0129579
0.0128023
0.0126799
0.0125854
0.0125154
0.0124671
0.0124364
0.0124204
0.0124214
0.0124292
0.0124475
0.0124752
0.0125092
0.0125471
0.0125895
0.0126351
0.012683
0.0127319
0.0127813
0.0128313
0.0128805
0.012929
0.0129765
0.0130227
0.013067
0.0131096
0.0131501
0.0131888
0.0132249
0.0132592
0.013291
0.0133207
0.0133479
0.0133733
0.0133961
0.0134172
0.0134356
0.0134527
0.013467
0.0134804
0.0134908
0.0135008
0.0135077
0.0135143
0.0135182
0.0135216
0.0135229
0.013523
0.0135221
0.0135201
0.0135164
0.0135123
0.0135062
0.0135004
0.0134922
0.0134847
0.0134746
0.0134655
0.0134543
0.0134433
0.0134305
0.0134184
0.013406
0.013391
0.0133776
0.0133529
0.0133427
0.0133457
0.0135855
0.016824
6.55041
2.46039
1.13275
0.604792
0.360479
0.233587
0.161482
0.117494
0.0890792
0.0698506
0.0563322
0.0465162
0.0391917
0.0336018
0.0292519
0.0258099
0.0230473
0.0208021
0.0189583
0.0174301
0.0161541
0.0150813
0.0141751
0.0134057
0.0127511
0.0121921
0.0117151
0.0113071
0.0109593
0.0106625
0.0104111
0.0101983
0.0100201
0.00987186
0.00975021
0.00965187
0.00957445
0.00951427
0.00947177
0.00944228
0.00942473
0.00941986
0.00942341
0.00943388
0.00945279
0.00947852
0.00950859
0.00954254
0.00958019
0.0096212
0.00966384
0.00970819
0.00975379
0.00980013
0.00984665
0.00989324
0.00993948
0.00998528
0.01003
0.010074
0.0101166
0.0101583
0.0101981
0.010237
0.0102738
0.0103096
0.0103431
0.0103757
0.0104058
0.0104352
0.010462
0.0104882
0.0105117
0.0105347
0.0105552
0.010575
0.0105928
0.0106094
0.0106245
0.0106385
0.0106508
0.0106624
0.0106721
0.0106815
0.0106888
0.010696
0.0107012
0.0107062
0.0107098
0.0107125
0.010714
0.0107151
0.0107159
0.0107141
0.0107118
0.0107041
0.0107023
0.0107071
0.0109188
0.0141738
6.56101
2.4826
1.15319
0.620453
0.371778
0.241561
0.167057
0.121356
0.0917142
0.0715959
0.0574195
0.0471117
0.0394178
0.0335428
0.0289669
0.0253441
0.022434
0.0200666
0.0181194
0.0165022
0.0151481
0.0140055
0.013036
0.0122082
0.0114989
0.0108884
0.0103618
0.00990617
0.00951197
0.00917011
0.00887433
0.00861817
0.00839727
0.00820703
0.00804425
0.00790548
0.00778862
0.00769039
0.00761
0.00754474
0.00749289
0.00745394
0.00742595
0.00740743
0.00739724
0.00739732
0.00740163
0.00741241
0.00742945
0.00745171
0.00747707
0.00750608
0.00753835
0.00757321
0.00760982
0.00764828
0.00768798
0.00772878
0.00777004
0.00781191
0.00785374
0.00789573
0.00793717
0.00797852
0.00801896
0.00805906
0.00809789
0.00813637
0.00817322
0.00820974
0.00824432
0.00827866
0.0083109
0.00834279
0.0083727
0.00840199
0.0084296
0.00845627
0.00848148
0.00850573
0.00852851
0.00855043
0.00857076
0.00859047
0.00860851
0.00862597
0.0086419
0.00865703
0.00867127
0.00868412
0.00869607
0.00870677
0.00871798
0.00872576
0.0087327
0.00873578
0.00874028
0.00875118
0.00896139
0.012275
6.56728
2.49746
1.16798
0.632518
0.38098
0.248407
0.172104
0.125059
0.0944184
0.0735524
0.0588109
0.048071
0.0400405
0.0339006
0.0291167
0.0253266
0.0222784
0.0197965
0.0177531
0.0160537
0.0146285
0.0134235
0.0123983
0.0115203
0.010765
0.0101119
0.00954532
0.00905184
0.00862138
0.00824467
0.00791498
0.00762582
0.00737254
0.00715047
0.00695633
0.00678663
0.00663917
0.00651102
0.00640075
0.0063063
0.00622598
0.00615872
0.00610315
0.00605821
0.00602224
0.00599611
0.00597708
0.00596498
0.00595966
0.00596084
0.00596567
0.00597588
0.00599078
0.00600934
0.00603061
0.00605506
0.0060822
0.00611148
0.00614252
0.00617519
0.00620909
0.00624422
0.00627996
0.00631654
0.00635327
0.00639054
0.00642753
0.00646489
0.00650155
0.00653846
0.00657431
0.00661036
0.00664512
0.00667987
0.00671333
0.0067465
0.0067785
0.00680989
0.00684022
0.00686981
0.00689833
0.00692608
0.00695267
0.00697858
0.00700328
0.00702722
0.00705011
0.00707195
0.00709329
0.00711308
0.00713223
0.00714971
0.00716839
0.00718341
0.00719662
0.00720454
0.00721605
0.00723477
0.00745869
0.01085
6.57042
2.50677
1.17818
0.641436
0.38817
0.254019
0.176428
0.128374
0.0969529
0.0754831
0.0602725
0.049165
0.0408438
0.0344718
0.0294997
0.0255551
0.0223815
0.0197954
0.0176632
0.0158882
0.0143977
0.013136
0.0120605
0.0111378
0.0103421
0.0096521
0.0090515
0.00852638
0.00806606
0.00766109
0.00730428
0.00698905
0.00671042
0.00646368
0.00624535
0.0060519
0.00588092
0.00572969
0.00559644
0.00547927
0.00537655
0.00528702
0.00520939
0.00514276
0.00508561
0.00503796
0.00499837
0.00496624
0.00494092
0.00492242
0.00490921
0.0049011
0.00489865
0.00490021
0.00490502
0.00491414
0.00492696
0.00494239
0.00496033
0.00498072
0.00500344
0.00502801
0.00505414
0.00508175
0.00511051
0.00514052
0.00517113
0.00520276
0.00523455
0.00526717
0.0052996
0.0053327
0.00536532
0.00539837
0.00543085
0.00546346
0.0054955
0.00552734
0.00555863
0.00558953
0.00561983
0.00564963
0.00567873
0.00570728
0.00573513
0.00576226
0.00578877
0.00581428
0.00583963
0.00586353
0.00588698
0.00590872
0.00593213
0.00595215
0.00596972
0.00598117
0.00599613
0.00602265
0.00626788
0.00973989
6.57171
2.51222
1.1849
0.647779
0.393588
0.258452
0.179988
0.13121
0.099202
0.0772627
0.0616762
0.0502668
0.0417016
0.035131
0.029996
0.0259168
0.0226304
0.0199487
0.0177366
0.0158936
0.0143438
0.0130303
0.0119093
0.0109462
0.0101142
0.0093915
0.00876099
0.00820837
0.00772246
0.00729356
0.00691411
0.00657736
0.00627809
0.00601146
0.00577381
0.00556157
0.00537213
0.00520283
0.0050517
0.00491686
0.00479667
0.00468981
0.00459494
0.00451118
0.00443721
0.00437257
0.00431626
0.00426767
0.00422602
0.00419111
0.00416214
0.00413847
0.00412025
0.00410674
0.00409734
0.00409174
0.0040909
0.00409253
0.00409715
0.00410499
0.00411591
0.00412883
0.00414386
0.00416096
0.00417994
0.00420061
0.00422254
0.00424591
0.00427022
0.00429582
0.00432193
0.00434912
0.00437653
0.00440479
0.00443314
0.00446201
0.0044909
0.00452001
0.00454909
0.00457816
0.00460712
0.0046359
0.00466448
0.00469274
0.00472078
0.0047483
0.0047756
0.00480212
0.00482881
0.00485428
0.00487951
0.0049032
0.00492888
0.00495158
0.00497169
0.00498533
0.00500246
0.00503318
0.00530164
0.00884549
6.57204
2.51515
1.1891
0.65211
0.397527
0.261838
0.182821
0.133548
0.10112
0.0788297
0.0629529
0.0513037
0.0425402
0.035805
0.0305324
0.0263378
0.0229538
0.0201892
0.0179058
0.0160008
0.0143978
0.0130382
0.0118762
0.0108767
0.0100121
0.00925999
0.00860279
0.0080258
0.00751739
0.00706764
0.00666865
0.00631354
0.00599683
0.00571359
0.00545995
0.00523232
0.0050279
0.00484404
0.00467862
0.00452975
0.00439573
0.00427519
0.00416678
0.00406954
0.00398227
0.00390431
0.00383476
0.00377301
0.00371831
0.00367028
0.00362837
0.00359193
0.00356084
0.00353458
0.00351286
0.00349496
0.00348152
0.00347136
0.00346455
0.00346056
0.00346054
0.00346213
0.0034663
0.00347308
0.00348223
0.00349311
0.0035057
0.00352008
0.00353595
0.00355338
0.00357181
0.00359158
0.00361219
0.00363394
0.00365631
0.00367951
0.00370322
0.00372753
0.00375225
0.00377732
0.00380271
0.00382825
0.00385403
0.00387977
0.00390571
0.00393141
0.00395724
0.0039826
0.00400841
0.00403333
0.0040582
0.00408188
0.00410767
0.00413105
0.00415191
0.00416663
0.0041846
0.00421686
0.00450451
0.00810017
6.57195
2.51654
1.19156
0.654937
0.400288
0.264339
0.185004
0.135417
0.102703
0.0801614
0.0640689
0.0522361
0.0433167
0.036449
0.0310637
0.0267729
0.0233063
0.0204706
0.0181257
0.0161671
0.0145171
0.0131157
0.0119172
0.0108854
0.00999167
0.00921331
0.00853225
0.00793351
0.0074051
0.00693691
0.00652076
0.00614962
0.0058178
0.00552029
0.00525304
0.00501241
0.00479545
0.0045995
0.00442232
0.00426198
0.00411673
0.00398517
0.00386589
0.00375788
0.00365998
0.00357145
0.00349138
0.00341917
0.00335409
0.00329564
0.00324335
0.00319663
0.00315521
0.00311863
0.00308669
0.00305872
0.00303497
0.00301475
0.00299808
0.00298426
0.00297403
0.00296625
0.00296109
0.00295831
0.00295847
0.00296002
0.00296373
0.00296952
0.00297717
0.00298633
0.00299688
0.00300895
0.00302231
0.00303694
0.00305255
0.00306922
0.00308679
0.00310523
0.00312442
0.00314422
0.00316469
0.00318562
0.00320711
0.00322883
0.0032511
0.00327341
0.00329614
0.00331872
0.00334198
0.0033647
0.00338755
0.00340961
0.00343379
0.00345614
0.00347621
0.00349086
0.00350834
0.0035401
0.00383862
0.00745677
6.57172
2.51703
1.19287
0.656681
0.402142
0.266123
0.186634
0.136866
0.10397
0.0812588
0.0650133
0.0530455
0.0440077
0.037037
0.0315622
0.0271935
0.0236589
0.0207639
0.0183668
0.0163624
0.0146719
0.0132346
0.0120039
0.0109432
0.0100236
0.0092221
0.0085199
0.00790182
0.00735564
0.00687106
0.00643971
0.00605443
0.00570934
0.00539936
0.00512029
0.00486844
0.00464075
0.0044345
0.00424739
0.00407743
0.00392283
0.00378214
0.00365393
0.00353712
0.00343059
0.00333349
0.00324496
0.00316432
0.0030909
0.00302411
0.0029635
0.00290853
0.00285884
0.00281398
0.00277377
0.00273763
0.00270557
0.00267712
0.00265224
0.00263036
0.00261177
0.00259591
0.00258276
0.00257196
0.00256389
0.00255779
0.00255378
0.00255175
0.00255196
0.00255337
0.00255657
0.00256145
0.00256788
0.00257553
0.00258442
0.00259451
0.00260581
0.0026181
0.00263134
0.00264541
0.0026604
0.00267607
0.00269253
0.00270944
0.00272714
0.00274513
0.00276375
0.00278253
0.00280212
0.00282153
0.00284119
0.00286048
0.00288179
0.00290189
0.00291994
0.00293356
0.00294944
0.00297919
0.00327786
0.00688132
6.57148
2.51704
1.19346
0.657677
0.403324
0.267344
0.18781
0.137955
0.104954
0.0821371
0.0657896
0.053727
0.0446033
0.0375555
0.0320118
0.0275819
0.023993
0.0210497
0.0186097
0.0165671
0.0148424
0.0133744
0.0121162
0.0110306
0.0100885
0.00926632
0.00854541
0.00791038
0.00734857
0.00684951
0.00640471
0.00600692
0.00565012
0.00532916
0.00503973
0.00477807
0.00454104
0.00432589
0.00413022
0.00395204
0.00378949
0.00364107
0.00350535
0.0033812
0.00326748
0.00316331
0.00306781
0.00298028
0.00290005
0.0028265
0.00275916
0.00269749
0.00264112
0.00258961
0.00254271
0.00249995
0.00246121
0.0024261
0.00239452
0.00236604
0.0023407
0.00231817
0.00229836
0.00228095
0.00226609
0.00225339
0.00224283
0.00223417
0.00222767
0.00222274
0.00221953
0.00221793
0.00221814
0.00221934
0.00222205
0.00222609
0.0022315
0.00223788
0.00224536
0.00225379
0.00226335
0.00227368
0.00228494
0.0022968
0.00230963
0.00232296
0.00233703
0.00235147
0.00236683
0.0023823
0.00239814
0.00241393
0.00243158
0.00244859
0.00246383
0.00247562
0.00248908
0.00251565
0.00280293
0.00634964
6.57128
2.51683
1.19363
0.658177
0.404028
0.26814
0.188625
0.138745
0.105697
0.0828202
0.0664098
0.0542851
0.0451021
0.0379991
0.0324045
0.0279283
0.0242974
0.021316
0.0188416
0.0167678
0.0150149
0.0135214
0.01224
0.0111333
0.0101719
0.00933216
0.00859506
0.00794502
0.0073694
0.00685771
0.00640118
0.00599238
0.00562528
0.00529465
0.0049961
0.00472584
0.00448062
0.00425769
0.00405459
0.00386927
0.00369985
0.0035448
0.00340267
0.00327226
0.00315245
0.00304233
0.00294099
0.00284772
0.00276182
0.00268269
0.0026098
0.00254264
0.0024808
0.00242386
0.00237151
0.00232337
0.00227921
0.00223869
0.00220167
0.00216781
0.00213702
0.00210904
0.00208377
0.00206093
0.00204055
0.00202236
0.00200633
0.00199221
0.00198012
0.00196974
0.0019611
0.001954
0.00194864
0.00194454
0.0019419
0.00194052
0.00194068
0.00194165
0.00194389
0.00194719
0.00195172
0.00195702
0.00196332
0.00197033
0.00197843
0.00198714
0.00199664
0.00200668
0.00201768
0.00202904
0.00204082
0.00205278
0.00206644
0.00207994
0.00209199
0.00210144
0.002112
0.00213455
0.00240016
0.00584589
6.57111
2.51651
1.19355
0.658364
0.404404
0.268627
0.189164
0.139297
0.106238
0.0833354
0.0668915
0.0547297
0.0455087
0.0383683
0.0327381
0.0282283
0.024566
0.0215556
0.0190544
0.0169561
0.0151805
0.0136663
0.0123658
0.0112415
0.010264
0.00940933
0.00865846
0.00799567
0.00740821
0.00688542
0.00641853
0.00600019
0.00562415
0.00528506
0.00497852
0.00470071
0.00444834
0.00421859
0.00400899
0.00381744
0.00364206
0.00348125
0.00333356
0.00319777
0.00307274
0.00295752
0.00285122
0.00275308
0.0026624
0.00257857
0.00250104
0.0024293
0.00236292
0.00230148
0.00224465
0.00219207
0.00214345
0.00209851
0.00205704
0.00201878
0.00198354
0.00195111
0.00192138
0.00189411
0.00186923
0.00184654
0.001826
0.00180738
0.00179072
0.00177579
0.00176261
0.00175095
0.00174094
0.0017323
0.0017251
0.00171913
0.00171462
0.00171113
0.00170887
0.00170758
0.00170768
0.00170841
0.00171022
0.00171285
0.00171664
0.00172105
0.00172626
0.00173211
0.00173896
0.00174634
0.00175415
0.00176228
0.00177196
0.00178186
0.0017906
0.0017975
0.00180498
0.00182299
0.00205842
0.00535976
6.57098
2.51618
1.19335
0.658363
0.404563
0.268895
0.189498
0.139665
0.106617
0.083711
0.0672542
0.0550738
0.0458311
0.0386676
0.033014
0.0284811
0.0247965
0.0217649
0.0192436
0.0171265
0.0153334
0.0138027
0.0124869
0.0113485
0.0103577
0.00949068
0.0087283
0.00805479
0.0074573
0.00692513
0.00644943
0.00602276
0.00563886
0.00529246
0.00497905
0.00469467
0.00443605
0.00420035
0.00398507
0.0037881
0.0036075
0.00344169
0.00328917
0.00314871
0.00301916
0.00289955
0.00278898
0.00268666
0.0025919
0.00250406
0.00242259
0.00234698
0.00227678
0.00221157
0.00215098
0.00209469
0.00204237
0.00199377
0.00194863
0.00190671
0.00186781
0.00183174
0.00179834
0.00176741
0.00173886
0.00171248
0.00168824
0.00166592
0.00164552
0.00162684
0.00160989
0.00159447
0.00158064
0.0015682
0.00155719
0.0015474
0.00153898
0.00153167
0.00152557
0.00152043
0.00151655
0.0015135
0.00151151
0.00151024
0.00151025
0.00151077
0.00151212
0.00151423
0.00151733
0.00152104
0.00152519
0.0015297
0.00153567
0.00154212
0.00154768
0.00155202
0.0015567
0.00156962
0.0017686
0.00488489
6.57087
2.51585
1.19311
0.658259
0.404587
0.269016
0.189686
0.139895
0.10687
0.0839743
0.0675181
0.0553321
0.0460796
0.0389037
0.0332361
0.0286886
0.0249892
0.0219429
0.0194073
0.0172764
0.01547
0.0139269
0.0125992
0.0114495
0.0104481
0.00957117
0.0087994
0.00811705
0.00751122
0.0069712
0.00648808
0.00605441
0.00566387
0.00531116
0.0049917
0.00470167
0.00443769
0.00419686
0.00397666
0.00377496
0.00358984
0.00341967
0.00326296
0.00311844
0.00298497
0.00286155
0.00274728
0.00264136
0.00254308
0.0024518
0.00236696
0.00228804
0.00221458
0.00214616
0.0020824
0.00202297
0.00196755
0.00191586
0.00186765
0.00182268
0.00178074
0.00174164
0.0017052
0.00167124
0.00163965
0.00161023
0.00158294
0.00155756
0.00153409
0.00151233
0.00149228
0.00147376
0.00145678
0.0014412
0.00142701
0.00141408
0.00140242
0.00139191
0.00138258
0.00137423
0.00136704
0.00136074
0.0013555
0.00135098
0.00134758
0.00134487
0.00134301
0.00134176
0.0013416
0.00134199
0.00134291
0.00134415
0.0013468
0.00135017
0.00135269
0.00135449
0.00135666
0.00136489
0.00152387
0.00441869
6.57079
2.51555
1.19284
0.658102
0.404533
0.269043
0.189773
0.140025
0.107028
0.0841497
0.0677024
0.0555192
0.0462651
0.0390845
0.0334102
0.0288545
0.0251461
0.0220904
0.0195452
0.0174047
0.0155889
0.0140365
0.0126999
0.0115417
0.0105321
0.00964736
0.00886812
0.00817866
0.00756605
0.00701959
0.00653035
0.00609084
0.00569475
0.00533675
0.00501224
0.00471736
0.00444872
0.00420346
0.00397906
0.00377332
0.00358429
0.00341035
0.00325001
0.00310198
0.00296511
0.0028384
0.00272092
0.00261188
0.00251056
0.00241632
0.00232857
0.00224681
0.00217054
0.00209938
0.00203291
0.00197081
0.00191274
0.00185844
0.00180763
0.00176009
0.00171559
0.00167394
0.00163496
0.00159847
0.00156435
0.0015324
0.00150257
0.00147466
0.00144864
0.00142433
0.00140171
0.00138062
0.00136105
0.00134288
0.00132606
0.00131051
0.00129619
0.00128303
0.001271
0.00126
0.00125006
0.00124104
0.00123305
0.00122581
0.00121958
0.0012141
0.00120948
0.00120543
0.00120237
0.00120007
0.00119812
0.00119642
0.00119637
0.00119708
0.00119674
0.00119601
0.0011956
0.00120034
0.00131948
0.0039617
6.57071
2.51527
1.19259
0.657925
0.404434
0.269011
0.189794
0.140085
0.107117
0.0842588
0.0678246
0.055649
0.0463986
0.0392185
0.0335425
0.0289834
0.0252705
0.0222095
0.0196584
0.0175117
0.0156896
0.0141308
0.0127879
0.0116234
0.0106077
0.00971701
0.00893201
0.00823699
0.00761903
0.00706742
0.00657323
0.00612898
0.00572833
0.00536595
0.00503724
0.00473832
0.0044658
0.0042168
0.00398877
0.00377954
0.00358719
0.00341005
0.00324659
0.00309554
0.00295574
0.00282618
0.00270594
0.00259421
0.00249026
0.00239346
0.00230321
0.00221899
0.00214032
0.00206679
0.00199799
0.0019336
0.00187327
0.00181674
0.00176372
0.00171399
0.00166732
0.00162351
0.00158239
0.00154375
0.0015075
0.00147343
0.00144148
0.00141144
0.0013833
0.00135686
0.0013321
0.00130888
0.00128716
0.00126683
0.00124784
0.00123012
0.00121359
0.00119824
0.00118397
0.00117075
0.00115854
0.00114727
0.00113697
0.00112747
0.00111891
0.00111108
0.00110415
0.00109772
0.00109226
0.00108767
0.00108325
0.00107911
0.00107672
0.00107523
0.0010725
0.00106839
0.00106579
0.00106824
0.00115129
0.00351601
6.57065
2.51502
1.19234
0.657744
0.404317
0.268947
0.189774
0.140099
0.107158
0.0843194
0.0678997
0.0557342
0.0464903
0.0393141
0.0336397
0.0290806
0.0253664
0.022303
0.019749
0.0175988
0.0157728
0.0142099
0.0128627
0.0116939
0.0106739
0.00977883
0.00898956
0.00829035
0.00766829
0.00711269
0.00661461
0.00616658
0.00576228
0.00539635
0.00506422
0.00476199
0.00448626
0.00423415
0.00400312
0.00379098
0.00359579
0.00341589
0.00324979
0.00309619
0.0029539
0.0028219
0.00269929
0.00258525
0.00247905
0.00238004
0.00228763
0.0022013
0.00212056
0.002045
0.0019742
0.00190784
0.00184556
0.00178712
0.00173221
0.0016806
0.00163208
0.00158643
0.00154348
0.00150304
0.00146498
0.00142911
0.00139536
0.00136354
0.0013336
0.00130538
0.00127883
0.00125382
0.0012303
0.00120817
0.00118736
0.00116784
0.00114947
0.0011323
0.00111616
0.0011011
0.00108701
0.00107386
0.00106166
0.00105025
0.00103976
0.00102999
0.00102112
0.0010127
0.00100524
0.000998734
0.000992276
0.000985947
0.000981653
0.000978496
0.000973771
0.000966711
0.00096144
0.000962169
0.00101529
0.00308576
6.57059
2.51479
1.19212
0.657569
0.404192
0.268867
0.189729
0.140084
0.107166
0.0843457
0.0679403
0.0557856
0.0465496
0.039379
0.0337082
0.0291512
0.0254378
0.0223743
0.0198194
0.0176677
0.0158397
0.0142745
0.0129248
0.0117532
0.0107303
0.00983226
0.00903998
0.00833775
0.00771267
0.00715407
0.00665304
0.00620211
0.00579495
0.00542624
0.00509138
0.00478648
0.00450816
0.00425353
0.00402003
0.00380549
0.00360797
0.00342579
0.00325745
0.00310166
0.00295726
0.00282322
0.00269861
0.0025826
0.00247448
0.00237359
0.00227934
0.0021912
0.00210868
0.00203137
0.00195886
0.00189081
0.00182687
0.00176678
0.00171025
0.00165704
0.00160693
0.00155971
0.0015152
0.0014732
0.00143361
0.00139621
0.00136094
0.00132759
0.00129614
0.00126641
0.00123835
0.00121182
0.00118679
0.00116315
0.00114082
0.00111977
0.00109987
0.00108117
0.00106348
0.00104688
0.00103122
0.00101651
0.00100272
0.000989725
0.000977634
0.000966236
0.000955761
0.000945678
0.000936538
0.000928444
0.000920316
0.000912113
0.000906148
0.000901645
0.000895453
0.000886014
0.000877942
0.000876927
0.00090697
0.00267759
6.57054
2.51458
1.19191
0.657403
0.404069
0.26878
0.189672
0.140051
0.107153
0.0843489
0.0679565
0.0558123
0.0465845
0.0394201
0.0337539
0.0292003
0.025489
0.0224269
0.0198724
0.0177206
0.0158921
0.0143259
0.0129749
0.0118018
0.0107772
0.00987728
0.00908302
0.00837873
0.00775155
0.00719082
0.00668763
0.00623454
0.00582524
0.00545439
0.00511743
0.00481045
0.00453009
0.00427344
0.00403797
0.00382149
0.00362206
0.00343802
0.00326786
0.00311028
0.00296412
0.00282834
0.00270203
0.00258438
0.00247465
0.00237217
0.00227635
0.00218668
0.00210265
0.00202385
0.00194987
0.00188038
0.00181502
0.00175353
0.0016956
0.00164103
0.00158956
0.00154099
0.00149515
0.00145183
0.00141092
0.00137221
0.00133564
0.00130101
0.00126827
0.00123725
0.0012079
0.0011801
0.00115378
0.00112886
0.00110525
0.00108292
0.00106173
0.00104174
0.00102275
0.00100485
0.000987879
0.000971859
0.000956742
0.000942414
0.000928988
0.000916228
0.00090442
0.00089295
0.000882388
0.000872977
0.000863498
0.000853727
0.000846247
0.000840631
0.0008334
0.000822362
0.000811499
0.000808391
0.000821926
0.00229884
6.57049
2.51439
1.19172
0.657249
0.403951
0.268692
0.189609
0.140009
0.107127
0.0843373
0.0679563
0.0558215
0.0466014
0.0394433
0.0337821
0.0292323
0.025524
0.0224639
0.0199109
0.01776
0.0159318
0.0143657
0.0130143
0.0118406
0.0108151
0.00991424
0.00911883
0.00841327
0.00778473
0.00722257
0.0067179
0.00626329
0.00585245
0.00548004
0.00514151
0.00483296
0.00455103
0.00429282
0.00405581
0.0038378
0.00363686
0.00345132
0.00327969
0.00312066
0.00297306
0.00283587
0.00270817
0.00258914
0.00247805
0.00237424
0.00227712
0.00218617
0.00210086
0.00202082
0.0019456
0.00187488
0.00180831
0.00174563
0.00168652
0.00163077
0.00157815
0.00152843
0.00148145
0.00143701
0.00139498
0.00135515
0.00131748
0.00128174
0.0012479
0.00121578
0.00118535
0.00115646
0.00112905
0.00110305
0.00107834
0.00105493
0.00103264
0.00101157
0.000991478
0.000972487
0.000954408
0.000937282
0.000921057
0.000905604
0.000891061
0.000877155
0.000864232
0.00085161
0.000839839
0.000829316
0.000818751
0.000807701
0.000798814
0.00079224
0.000784303
0.00077218
0.000759412
0.000752866
0.000756394
0.00195578
6.57045
2.51421
1.19155
0.657106
0.40384
0.268608
0.189546
0.139962
0.107095
0.0843166
0.0679455
0.055819
0.0466058
0.0394535
0.0337971
0.0292512
0.0255461
0.0224886
0.0199375
0.017788
0.0159609
0.0143954
0.0130443
0.0118707
0.010845
0.00994379
0.00914785
0.00844164
0.00781233
0.00724931
0.00674371
0.0062881
0.00587621
0.00550272
0.00516307
0.00485339
0.00457031
0.00431094
0.00407276
0.00385358
0.00365147
0.00346477
0.00329197
0.00313179
0.00298305
0.00284473
0.0027159
0.00259576
0.00248356
0.00237866
0.00228044
0.00218841
0.00210206
0.00202097
0.00194472
0.00187298
0.00180539
0.0017417
0.0016816
0.00162486
0.00157125
0.00152057
0.00147262
0.00142722
0.00138423
0.00134346
0.00130484
0.00126817
0.00123339
0.00120035
0.00116898
0.00113916
0.00111083
0.0010839
0.00105828
0.00103394
0.00101073
0.000988732
0.000967711
0.000947792
0.000928781
0.000910717
0.000893558
0.000877155
0.000861673
0.000846799
0.000832937
0.000819362
0.000806562
0.000795081
0.000783649
0.000771585
0.000761387
0.000753929
0.00074553
0.000732944
0.000718086
0.000709121
0.000707054
0.00165283
6.57041
2.51406
1.19138
0.656973
0.403736
0.268527
0.189484
0.139915
0.10706
0.084291
0.0679283
0.0558089
0.0466018
0.0394546
0.0338027
0.0292605
0.0255586
0.0225036
0.0199547
0.0178069
0.0159812
0.0144167
0.0130664
0.0118932
0.0108679
0.00996672
0.00917072
0.00846432
0.00783469
0.00727125
0.00676514
0.00630895
0.00589642
0.00552224
0.00518185
0.0048714
0.00458751
0.00432732
0.00408829
0.00386825
0.00366527
0.00347769
0.00330401
0.00314293
0.0029933
0.00285409
0.00272437
0.00260334
0.00249026
0.00238448
0.00228539
0.00219249
0.00210526
0.0020233
0.00194619
0.00187361
0.00180518
0.00174066
0.00167972
0.00162216
0.00156772
0.00151622
0.00146746
0.00142125
0.00137746
0.00133589
0.00129647
0.001259
0.00122343
0.0011896
0.00115744
0.00112684
0.00109773
0.00107001
0.0010436
0.00101848
0.000994484
0.0009717
0.000949892
0.000929186
0.000909385
0.000890527
0.000872579
0.000855373
0.000839096
0.000823407
0.000808743
0.000794386
0.000780707
0.000768384
0.000756256
0.00074342
0.000732011
0.000723679
0.000715035
0.000702189
0.000686104
0.000674472
0.000670165
0.001396
6.57037
2.51391
1.19124
0.656851
0.403639
0.268452
0.189425
0.139868
0.107023
0.0842632
0.0679076
0.0557942
0.0465923
0.0394497
0.0338017
0.0292629
0.0255639
0.0225114
0.0199646
0.0178187
0.0159944
0.0144311
0.0130818
0.0119094
0.0108847
0.00998392
0.00918819
0.00848191
0.00785229
0.00728876
0.00678247
0.00632603
0.00591317
0.0055386
0.00519778
0.00488684
0.00460244
0.0043417
0.00410209
0.00388145
0.00367785
0.00348963
0.00331529
0.00315356
0.00300325
0.00286336
0.00273296
0.00261125
0.00249747
0.00239099
0.00229121
0.00219761
0.00210969
0.00202704
0.00194923
0.00187595
0.00180683
0.00174162
0.00168
0.00162176
0.00156664
0.00151446
0.00146502
0.00141814
0.00137367
0.00133143
0.00129134
0.0012532
0.00121696
0.00118246
0.00114965
0.00111837
0.0010886
0.00106021
0.00103314
0.00100736
0.000982701
0.000959249
0.000936777
0.000915403
0.000894933
0.000875403
0.000856785
0.000838902
0.000821948
0.000805576
0.000790219
0.000775223
0.0007608
0.000747726
0.000735031
0.00072164
0.000709126
0.000699938
0.000691087
0.000678261
0.000661763
0.000647332
0.000642021
0.00118555
6.57034
2.51378
1.1911
0.656738
0.40355
0.268381
0.189368
0.139824
0.106988
0.0842349
0.0678853
0.0557771
0.0465797
0.0394409
0.0337963
0.0292606