/*--------------------------------*- C++ -*----------------------------------*\
| =========                 |                                                 |
| \\      /  F ield         | OpenFOAM: The Open Source CFD Toolbox           |
|  \\    /   O peration     | Version:  3.0.0                                 |
|   \\  /    A nd           | Web:      www.OpenFOAM.org                      |
|    \\/     M anipulation  |                                                 |
\*---------------------------------------------------------------------------*/
FoamFile
{
    version     2.0;
    format      ascii;
    class       volScalarField;
    location    "275";
    object      k;
}
// * * * * * * * * * * * * * * * * * * * * * * * * * * * * * * * * * * * * * //

dimensions      [0 2 -2 0 0 0 0];

internalField   nonuniform List<scalar> 
10000
(
0.125894
0.0496764
0.0289791
0.0207029
0.0164964
0.0140197
0.0124141
0.0113007
0.0104892
0.00987397
0.00939228
0.00900539
0.00868679
0.00841933
0.0081913
0.00799426
0.00782197
0.00766976
0.00753417
0.00741246
0.00730246
0.00720235
0.0071108
0.00702653
0.00694868
0.00687632
0.0068089
0.00674572
0.00668641
0.00663038
0.00657749
0.00652729
0.00647966
0.00643428
0.00639101
0.00634962
0.00631004
0.00627203
0.00623559
0.0062005
0.00616676
0.00613418
0.00610279
0.00607243
0.0060431
0.0060147
0.0059872
0.00596056
0.00593471
0.00590961
0.00588523
0.00586154
0.00583849
0.00581606
0.00579424
0.00577297
0.00575224
0.00573203
0.00571231
0.00569308
0.00567428
0.00565595
0.005638
0.00562049
0.00560332
0.00558657
0.00557012
0.00555408
0.0055383
0.00552291
0.00550776
0.00549298
0.00547842
0.00546419
0.0054502
0.00543649
0.00542301
0.00540979
0.00539678
0.00538404
0.00537147
0.0053592
0.00534701
0.0053352
0.00532336
0.00531205
0.0053005
0.00528963
0.00527831
0.00526802
0.00525674
0.0052474
0.00523562
0.00522741
0.00521517
0.00520867
0.00519579
0.00519177
0.00515703
0.00513649
0.182597
0.080367
0.045664
0.0305771
0.0227209
0.0180864
0.0151013
0.0130552
0.0115889
0.0105024
0.00967739
0.00903944
0.00853595
0.00813457
0.00781191
0.00755025
0.00733621
0.00715989
0.00701381
0.00689181
0.00678915
0.00670187
0.00662719
0.00656243
0.00650593
0.00645581
0.00641122
0.00637075
0.00633388
0.0062996
0.00626804
0.00623821
0.00621035
0.00618371
0.00615841
0.00613405
0.00611071
0.00608802
0.00606623
0.00604486
0.00602422
0.00600393
0.0059843
0.00596495
0.00594613
0.00592763
0.00590955
0.00589183
0.0058744
0.00585732
0.00584055
0.00582407
0.00580788
0.00579198
0.00577638
0.00576102
0.00574593
0.0057311
0.00571649
0.00570219
0.00568804
0.00567421
0.00566051
0.00564712
0.00563382
0.00562086
0.00560794
0.0055954
0.00558285
0.00557071
0.00555852
0.00554674
0.00553493
0.00552345
0.00551202
0.00550083
0.00548975
0.00547886
0.00546807
0.00545752
0.00544698
0.00543677
0.00542644
0.0054166
0.00540643
0.00539699
0.00538699
0.00537788
0.00536797
0.00535946
0.00534908
0.00534218
0.00533023
0.00532507
0.00531239
0.0053111
0.00529821
0.005286
0.00517782
0.00494784
0.206285
0.0982791
0.057006
0.037967
0.0277763
0.0216838
0.0177277
0.0149956
0.0130202
0.0115407
0.0104022
0.00950666
0.00879194
0.00821473
0.00774267
0.00735284
0.00702937
0.00675997
0.00653504
0.00634662
0.00618851
0.00605553
0.00594382
0.00584962
0.00577042
0.00570345
0.00564715
0.00559929
0.00555917
0.00552482
0.00549594
0.0054709
0.00544975
0.00543117
0.00541518
0.00540101
0.00538856
0.00537728
0.00536729
0.00535788
0.00534938
0.00534122
0.00533373
0.00532634
0.00531942
0.00531257
0.00530598
0.00529948
0.005293
0.00528663
0.0052803
0.00527396
0.00526765
0.00526137
0.00525509
0.00524878
0.00524248
0.00523619
0.00522984
0.00522353
0.00521714
0.00521084
0.00520443
0.00519812
0.00519167
0.00518539
0.00517891
0.00517267
0.00516618
0.00515998
0.0051535
0.00514732
0.00514089
0.00513471
0.00512835
0.00512216
0.00511589
0.00510972
0.00510349
0.00509739
0.00509116
0.00508516
0.00507893
0.00507307
0.00506678
0.00506115
0.00505484
0.00504935
0.00504299
0.0050378
0.00503107
0.00502693
0.00501911
0.00501591
0.00500793
0.00500722
0.00500007
0.00498818
0.00492547
0.0047361
0.218873
0.109943
0.0652572
0.0437229
0.0319119
0.0247565
0.0200763
0.0168295
0.0144726
0.0126999
0.0113288
0.0102438
0.00936995
0.00865541
0.0080649
0.00757237
0.0071582
0.00680808
0.00651053
0.00625617
0.00603864
0.00585229
0.00569273
0.00555578
0.0054386
0.00533814
0.00525251
0.00517922
0.00511721
0.00506432
0.00502
0.0049823
0.00495113
0.00492473
0.00490312
0.00488514
0.00487052
0.00485855
0.0048491
0.0048413
0.00483541
0.00483064
0.00482724
0.00482447
0.00482271
0.00482133
0.00482063
0.00482015
0.00481991
0.00481997
0.00482009
0.00482029
0.00482057
0.00482087
0.00482111
0.0048213
0.00482145
0.0048215
0.00482145
0.00482132
0.00482103
0.00482072
0.00482017
0.00481963
0.00481881
0.00481806
0.00481698
0.00481603
0.0048147
0.00481357
0.004812
0.00481066
0.00480892
0.00480736
0.00480548
0.00480369
0.00480168
0.0047997
0.00479755
0.00479543
0.0047931
0.00479089
0.00478838
0.00478611
0.0047834
0.00478114
0.00477826
0.00477595
0.00477295
0.00477065
0.00476739
0.00476555
0.00476154
0.00476014
0.00475632
0.00475592
0.00475257
0.00474566
0.00470904
0.00456618
0.226011
0.117858
0.0714245
0.0483002
0.0353425
0.0273852
0.0221372
0.0184776
0.0158116
0.0138005
0.0122406
0.0110024
0.0100014
0.00917936
0.00849583
0.00792157
0.00743487
0.00701897
0.00666183
0.00635371
0.00608695
0.00585525
0.00565327
0.00547691
0.00532322
0.00518894
0.00507203
0.00496997
0.00488149
0.00480446
0.00473817
0.0046807
0.00463175
0.00458961
0.00455413
0.00452395
0.00449896
0.00447818
0.00446131
0.00444747
0.00443683
0.00442844
0.00442244
0.00441802
0.0044155
0.00441406
0.00441415
0.00441477
0.0044163
0.00441869
0.00442138
0.00442459
0.00442822
0.00443206
0.00443603
0.00444018
0.00444443
0.00444869
0.0044529
0.00445717
0.00446128
0.00446542
0.00446933
0.00447325
0.00447689
0.00448058
0.00448391
0.00448734
0.00449033
0.00449348
0.00449614
0.00449898
0.00450135
0.00450385
0.00450595
0.0045081
0.00450994
0.00451176
0.00451334
0.00451487
0.00451614
0.00451744
0.00451841
0.00451949
0.00452017
0.00452108
0.00452149
0.00452217
0.0045224
0.00452286
0.00452292
0.00452332
0.00452293
0.00452356
0.00452317
0.00452384
0.00452301
0.00452223
0.00449975
0.00439126
0.230064
0.123241
0.0760294
0.0519315
0.0381803
0.0296269
0.0239364
0.0199445
0.0170241
0.0148143
0.0130957
0.0117285
0.0106205
0.00970809
0.00894703
0.00830513
0.00775874
0.00728963
0.00688431
0.00653213
0.00622463
0.00595491
0.00571798
0.00550906
0.00532481
0.00516146
0.00501703
0.00488901
0.00477596
0.00467578
0.00458763
0.00450969
0.0044415
0.0043815
0.00432936
0.00428385
0.00424467
0.00421099
0.00418236
0.00415797
0.00413792
0.00412114
0.00410775
0.00409695
0.00408896
0.00408292
0.00407911
0.00407676
0.00407616
0.00407671
0.00407816
0.00408091
0.0040845
0.00408866
0.00409338
0.00409872
0.00410443
0.00411043
0.00411664
0.00412316
0.0041297
0.00413643
0.00414309
0.0041499
0.00415652
0.00416328
0.00416975
0.00417639
0.00418264
0.00418908
0.00419505
0.00420122
0.00420692
0.00421276
0.00421818
0.00422365
0.00422878
0.00423389
0.00423871
0.00424347
0.00424793
0.00425238
0.0042565
0.00426063
0.00426441
0.00426824
0.0042717
0.00427519
0.00427841
0.00428154
0.00428457
0.00428741
0.00428986
0.00429322
0.00429531
0.00429777
0.00429902
0.0043036
0.00428911
0.00420362
0.232309
0.126851
0.0794239
0.0547776
0.0405021
0.0315199
0.0254926
0.0212379
0.0181108
0.015736
0.0138839
0.0124069
0.0112073
0.0102175
0.00938997
0.00869024
0.00809294
0.00757862
0.00713263
0.00674347
0.00640216
0.00610121
0.00583514
0.00559884
0.00538861
0.00520106
0.00503375
0.00488395
0.0047499
0.00462968
0.00452228
0.00442598
0.00434014
0.00426335
0.00419514
0.00413439
0.00408068
0.00403325
0.0039917
0.00395514
0.0039237
0.00389633
0.00387312
0.00385333
0.00383704
0.00382348
0.00381275
0.00380436
0.0037982
0.00379407
0.00379137
0.0037906
0.00379109
0.00379259
0.00379533
0.0037992
0.00380373
0.00380894
0.00381481
0.00382131
0.00382814
0.00383538
0.00384288
0.00385075
0.00385865
0.00386685
0.00387497
0.00388339
0.00389156
0.00390002
0.00390815
0.00391655
0.00392458
0.00393279
0.00394066
0.00394862
0.00395629
0.00396395
0.00397137
0.00397873
0.00398582
0.00399289
0.00399966
0.00400639
0.00401283
0.00401922
0.00402535
0.00403134
0.00403722
0.00404278
0.00404848
0.00405356
0.00405872
0.00406432
0.00406911
0.00407314
0.0040758
0.00408536
0.00407572
0.00400487
0.233504
0.129218
0.0818787
0.0569702
0.0423724
0.0330961
0.0268219
0.0223652
0.0190737
0.0165645
0.0146015
0.013032
0.0117544
0.010698
0.00981308
0.00906331
0.00842194
0.00786846
0.00738736
0.00696638
0.00659603
0.00626843
0.00597759
0.00571825
0.00548637
0.00527837
0.0050915
0.00492309
0.00477143
0.00463442
0.00451072
0.00439871
0.00429765
0.00420621
0.00412378
0.00404935
0.0039824
0.00392216
0.00386833
0.00381996
0.00377715
0.00373896
0.0037054
0.00367578
0.00365017
0.00362784
0.00360881
0.00359275
0.00357933
0.00356851
0.00355974
0.0035532
0.00354856
0.00354552
0.003544
0.00354421
0.00354527
0.00354756
0.00355106
0.00355544
0.00356049
0.00356629
0.00357276
0.00357985
0.00358724
0.00359518
0.00360333
0.00361197
0.00362059
0.00362966
0.00363862
0.00364798
0.00365713
0.00366657
0.00367583
0.00368526
0.00369451
0.00370383
0.003713
0.00372216
0.00373114
0.00374012
0.00374888
0.00375759
0.00376612
0.00377454
0.00378282
0.00379086
0.00379895
0.00380654
0.00381452
0.00382152
0.00382906
0.00383654
0.00384371
0.00384938
0.00385328
0.0038668
0.00386032
0.00379817
0.234105
0.130725
0.0836123
0.0586251
0.043852
0.0343872
0.0279405
0.0233345
0.0199165
0.0173005
0.0152472
0.013601
0.0122577
0.0111448
0.0102106
0.00941766
0.00873805
0.00815051
0.00763881
0.00719011
0.00679451
0.00644374
0.00613146
0.00585221
0.00560171
0.00537618
0.00517274
0.0049886
0.00482184
0.00467031
0.00453272
0.00440746
0.00429353
0.00418956
0.00409495
0.00400869
0.00393024
0.00385877
0.003794
0.00373504
0.00368184
0.00363364
0.00359032
0.00355129
0.00351653
0.00348546
0.00345793
0.00343378
0.0034126
0.00339435
0.00337861
0.0033654
0.00335444
0.00334556
0.00333849
0.00333344
0.0033299
0.00332771
0.00332726
0.00332784
0.00332945
0.00333226
0.00333613
0.00334077
0.00334606
0.00335221
0.00335888
0.00336624
0.00337384
0.00338212
0.00339056
0.00339955
0.00340855
0.00341801
0.00342748
0.00343725
0.00344702
0.00345696
0.00346691
0.00347695
0.00348692
0.00349698
0.00350693
0.00351688
0.00352677
0.00353654
0.00354632
0.00355582
0.00356553
0.00357464
0.00358435
0.00359287
0.00360228
0.00361124
0.00362029
0.00362757
0.00363247
0.00364906
0.00364408
0.00358643
0.234384
0.131651
0.0848032
0.0598454
0.0449985
0.0354255
0.0288663
0.0241554
0.0206437
0.0179457
0.015821
0.0141128
0.0127154
0.0115551
0.0105793
0.00974943
0.00903691
0.00841986
0.00788153
0.00740867
0.00699098
0.00661995
0.00628895
0.0059923
0.00572556
0.00548479
0.00526698
0.00506923
0.00488949
0.00472559
0.00457608
0.00443931
0.00431422
0.00419961
0.00409466
0.00399826
0.00390993
0.0038288
0.00375456
0.00368639
0.00362411
0.00356705
0.00351504
0.00346754
0.00342442
0.00338528
0.00334982
0.00331794
0.00328927
0.00326372
0.00324095
0.00322093
0.00320337
0.00318821
0.00317513
0.00316422
0.00315522
0.00314783
0.00314229
0.00313827
0.00313558
0.0031342
0.00313434
0.00313525
0.00313725
0.00314043
0.00314438
0.00314917
0.00315451
0.00316079
0.00316748
0.00317487
0.00318253
0.00319084
0.00319939
0.00320838
0.00321757
0.0032271
0.0032368
0.00324673
0.00325675
0.00326697
0.00327723
0.00328757
0.003298
0.00330837
0.0033189
0.00332916
0.0033398
0.00334981
0.0033606
0.00337012
0.00338077
0.00339077
0.00340107
0.00340974
0.00341552
0.00343358
0.00343028
0.00337379
0.234498
0.132197
0.0855958
0.0607217
0.0458672
0.036244
0.0296188
0.0248392
0.0212618
0.0185034
0.0163243
0.0145674
0.0131266
0.0119275
0.0109171
0.0100562
0.00931573
0.00867341
0.00811212
0.00761831
0.00718139
0.00679267
0.00644526
0.00613338
0.0058524
0.00559828
0.00536788
0.00515824
0.00496718
0.0047925
0.00463266
0.00448598
0.00435132
0.00422741
0.00411339
0.00400831
0.00391153
0.00382213
0.00373974
0.00366362
0.00359349
0.00352876
0.00346918
0.00341426
0.00336379
0.00331747
0.00327493
0.00323609
0.00320057
0.00316831
0.00313896
0.00311252
0.00308865
0.00306735
0.00304831
0.00303158
0.00301691
0.00300414
0.00299327
0.00298419
0.00297667
0.00297062
0.00296618
0.00296301
0.00296095
0.00296033
0.00296069
0.00296196
0.00296417
0.00296755
0.00297151
0.0029763
0.00298164
0.00298783
0.00299446
0.00300169
0.00300932
0.00301747
0.00302596
0.00303484
0.00304397
0.00305345
0.00306313
0.00307302
0.00308314
0.0030933
0.00310378
0.00311406
0.00312486
0.0031351
0.00314624
0.00315617
0.00316735
0.00317787
0.00318873
0.00319835
0.00320474
0.00322358
0.00322084
0.00316372
0.234533
0.132502
0.0861043
0.0613327
0.0465088
0.036875
0.0302185
0.0253988
0.0217786
0.0189783
0.0167595
0.0149658
0.0134912
0.0122614
0.0112229
0.0103365
0.00957271
0.00890909
0.00832828
0.00781652
0.00736302
0.00695894
0.00659726
0.00627207
0.00597862
0.0057128
0.00547134
0.00525126
0.00505027
0.00486615
0.00469724
0.0045419
0.00439888
0.00426693
0.0041451
0.00403243
0.0039282
0.00383162
0.00374223
0.00365926
0.00358236
0.003511
0.00344485
0.00338351
0.00332667
0.00327407
0.00322534
0.00318037
0.0031388
0.00310057
0.00306532
0.00303306
0.00300345
0.00297651
0.00295191
0.00292971
0.00290966
0.00289168
0.00287563
0.00286153
0.00284911
0.00283834
0.00282918
0.00282159
0.00281521
0.00281034
0.00280666
0.0028042
0.00280263
0.00280256
0.0028031
0.00280459
0.00280697
0.00281035
0.00281429
0.00281897
0.00282427
0.00283027
0.00283674
0.00284375
0.0028512
0.00285914
0.00286744
0.00287606
0.00288509
0.00289427
0.00290392
0.00291349
0.00292369
0.00293347
0.00294423
0.00295394
0.00296494
0.00297538
0.00298614
0.00299614
0.00300279
0.00302174
0.00301877
0.00295965
0.234535
0.132661
0.0864165
0.0617447
0.0469698
0.03735
0.0306864
0.0258479
0.0222033
0.0193762
0.0171301
0.0153101
0.0138103
0.0125569
0.0114964
0.0105895
0.00980676
0.00912557
0.00852844
0.00800154
0.00753394
0.00711671
0.00674274
0.00640601
0.00610172
0.00582568
0.00557455
0.00534531
0.00513559
0.00494317
0.00476632
0.00460336
0.00445301
0.00431399
0.00418533
0.00406603
0.00395536
0.00385251
0.00375693
0.00366797
0.00358522
0.00350812
0.00343629
0.00336937
0.003307
0.00324895
0.00319484
0.00314453
0.00309768
0.00305422
0.00301379
0.00297639
0.00294168
0.0029097
0.00288011
0.00285297
0.002828
0.00280523
0.00278438
0.00276558
0.00274851
0.00273323
0.00271954
0.00270757
0.00269691
0.00268782
0.00268
0.0026736
0.00266816
0.00266419
0.00266116
0.00265919
0.00265814
0.00265828
0.002659
0.00266064
0.00266313
0.00266642
0.00267027
0.00267481
0.00267997
0.00268574
0.002692
0.00269871
0.00270597
0.00271353
0.00272166
0.00272985
0.00273877
0.00274745
0.00275714
0.002766
0.00277615
0.00278592
0.00279595
0.00280566
0.00281221
0.00283033
0.00282679
0.00276491
0.234526
0.132735
0.0865979
0.0620117
0.0472907
0.037698
0.0310429
0.0262009
0.0225456
0.0197037
0.0174408
0.015603
0.0140856
0.0128149
0.0117377
0.010815
0.0100173
0.00932202
0.0087116
0.00817219
0.00769281
0.00726451
0.00688008
0.00653349
0.00621987
0.00593499
0.00567545
0.00543824
0.00522089
0.0050212
0.00483736
0.00466772
0.00451092
0.0043657
0.00423102
0.00410591
0.00398958
0.00388124
0.00378028
0.00368608
0.00359814
0.003516
0.00343924
0.00336748
0.00330029
0.0032375
0.0031787
0.00312376
0.0030723
0.00302428
0.00297933
0.00293743
0.00289826
0.00286185
0.00282785
0.00279634
0.002767
0.00273993
0.00271478
0.00269172
0.00267042
0.00265097
0.00263312
0.00261704
0.00260235
0.00258926
0.00257747
0.00256721
0.002558
0.00255022
0.00254353
0.00253802
0.00253345
0.0025301
0.00252758
0.002526
0.00252536
0.00252561
0.00252646
0.00252819
0.00253068
0.00253386
0.0025376
0.00254192
0.00254693
0.00255237
0.00255844
0.00256473
0.00257181
0.00257886
0.00258689
0.00259438
0.00260307
0.00261163
0.0026204
0.0026292
0.00263529
0.00265113
0.00264791
0.00258238
0.234514
0.132762
0.0866956
0.0621767
0.047506
0.0379455
0.0313076
0.0264721
0.0228159
0.0199683
0.0176967
0.0158484
0.0143195
0.0130369
0.0119479
0.0110135
0.0102044
0.00949812
0.00887717
0.00832769
0.00783872
0.00740127
0.00700813
0.00665324
0.00633171
0.00603929
0.00577254
0.00552844
0.00530448
0.00509846
0.00490854
0.00473304
0.00457059
0.00441991
0.00427996
0.00414973
0.00402842
0.00391525
0.00380956
0.00371077
0.00361832
0.00353176
0.00345061
0.00337457
0.0033032
0.00323628
0.00317339
0.00311439
0.00305892
0.00300692
0.00295802
0.00291221
0.00286913
0.00282884
0.00279098
0.00275564
0.00272246
0.00269159
0.00266264
0.00263579
0.00261072
0.00258754
0.00256595
0.00254615
0.00252779
0.00251103
0.0024956
0.00248171
0.00246896
0.00245762
0.00244742
0.00243848
0.00243051
0.00242376
0.00241797
0.00241318
0.00240931
0.00240644
0.00240433
0.00240304
0.0024027
0.00240301
0.00240396
0.00240566
0.00240815
0.00241112
0.00241477
0.00241879
0.00242364
0.00242867
0.00243461
0.00244028
0.00244707
0.00245396
0.00246106
0.00246839
0.00247361
0.00248715
0.00248285
0.00241437
0.234505
0.132765
0.086742
0.0622725
0.0476444
0.0381154
0.0314985
0.0266753
0.0230246
0.0201777
0.0179035
0.0160504
0.0145151
0.0132252
0.0121283
0.0111857
0.0103684
0.00965396
0.00902498
0.00846768
0.0079711
0.00752631
0.00712607
0.00676436
0.00643624
0.00613749
0.00586465
0.00561468
0.00538508
0.00517361
0.00497842
0.00479784
0.00463047
0.00447503
0.00433045
0.00419575
0.00407007
0.00395265
0.00384281
0.00373997
0.00364354
0.0035531
0.00346814
0.00338834
0.00331326
0.00324267
0.0031762
0.00311367
0.00305469
0.0029992
0.00294685
0.0028976
0.00285112
0.00280744
0.0027662
0.0027275
0.00269097
0.00265675
0.00262448
0.0025943
0.0025659
0.00253941
0.00251453
0.0024914
0.00246976
0.00244971
0.00243101
0.00241383
0.00239786
0.00238327
0.00236984
0.00235769
0.00234657
0.00233664
0.00232772
0.00231985
0.00231291
0.00230698
0.00230193
0.0022977
0.0022944
0.00229189
0.00229012
0.00228902
0.00228889
0.00228922
0.00229023
0.00229182
0.00229426
0.00229701
0.00230057
0.00230413
0.00230874
0.00231361
0.00231877
0.00232423
0.00232828
0.00233888
0.00233334
0.00226291
0.234498
0.132758
0.0867586
0.0623231
0.0477285
0.0382275
0.0316317
0.0268232
0.0231817
0.0203398
0.0180673
0.0162135
0.0146758
0.0133821
0.0122807
0.011333
0.0105102
0.00979004
0.00915524
0.00859211
0.00808974
0.00763924
0.00723339
0.0068662
0.00653274
0.0062288
0.0059509
0.00569604
0.00546167
0.00524558
0.0050459
0.00486097
0.00468936
0.00452981
0.00438121
0.0042426
0.00411311
0.00399197
0.00387849
0.0037721
0.00367218
0.00357832
0.00349001
0.00340691
0.00332858
0.00325479
0.00318513
0.00311946
0.0030574
0.00299887
0.00294349
0.00289123
0.00284176
0.00279511
0.00275091
0.00270926
0.0026698
0.00263264
0.00259745
0.00256435
0.00253305
0.00250363
0.00247585
0.0024498
0.00242526
0.00240229
0.0023807
0.00236058
0.00234173
0.00232422
0.00230789
0.00229283
0.00227884
0.00226601
0.00225421
0.00224349
0.0022337
0.00222493
0.00221706
0.00221007
0.00220397
0.0021987
0.00219426
0.00219047
0.00218763
0.00218537
0.00218388
0.00218289
0.00218288
0.0021832
0.00218425
0.00218558
0.00218787
0.00219053
0.0021936
0.00219693
0.00219955
0.00220671
0.0022
0.00212899
0.234493
0.132746
0.0867589
0.0623456
0.0477757
0.0382977
0.0317211
0.0269274
0.0232968
0.0204623
0.0181942
0.0163426
0.0148053
0.0135108
0.0124074
0.011457
0.010631
0.00990717
0.00926847
0.00870126
0.00819469
0.00773994
0.00732984
0.00695841
0.00662074
0.00631265
0.00603067
0.0057718
0.0055335
0.00531357
0.00511012
0.00492151
0.0047463
0.00458323
0.00443119
0.00428922
0.00415642
0.00403206
0.00391542
0.00380591
0.00370295
0.0036061
0.00351483
0.00342883
0.00334765
0.00327104
0.00319861
0.00313018
0.0030654
0.00300415
0.00294611
0.00289123
0.00283913
0.00278986
0.00274306
0.00269882
0.00265679
0.00261706
0.00257931
0.00254364
0.00250978
0.0024778
0.00244748
0.00241885
0.00239176
0.00236622
0.00234208
0.00231937
0.00229796
0.00227787
0.00225896
0.00224131
0.00222474
0.00220933
0.00219493
0.00218163
0.00216925
0.00215789
0.00214743
0.00213789
0.0021292
0.00212136
0.00211438
0.00210809
0.00210269
0.00209793
0.002094
0.00209056
0.00208803
0.00208601
0.00208471
0.00208371
0.00208368
0.00208399
0.00208497
0.00208612
0.00208694
0.00209052
0.00208283
0.00201279
0.234489
0.132734
0.0867513
0.0623514
0.0477988
0.0383386
0.0317781
0.0269981
0.0233784
0.0205522
0.0182901
0.0164425
0.0149076
0.0136142
0.0125108
0.0115597
0.0107322
0.0100065
0.00936548
0.00879567
0.0082863
0.00782858
0.00741541
0.00704084
0.00669999
0.00638871
0.00610353
0.00584147
0.00560001
0.00537696
0.00517042
0.00497876
0.00480054
0.00463452
0.00447957
0.00433473
0.00419911
0.00407198
0.00395261
0.00384042
0.00373481
0.00363535
0.00354152
0.00345299
0.00336931
0.00329022
0.00321535
0.00314451
0.00307734
0.00301372
0.00295332
0.00289608
0.00284168
0.00279013
0.00274105
0.00269453
0.00265023
0.00260824
0.00256824
0.00253032
0.00249421
0.00245998
0.00242742
0.00239653
0.0023672
0.00233939
0.00231301
0.00228803
0.00226436
0.00224199
0.00222081
0.00220086
0.00218201
0.00216429
0.00214759
0.00213198
0.00211729
0.00210361
0.00209082
0.00207895
0.00206794
0.00205776
0.00204845
0.00203984
0.00203211
0.00202501
0.00201878
0.00201306
0.00200819
0.0020039
0.00200034
0.0019971
0.00199474
0.0019929
0.0019918
0.00199082
0.00198906
0.00198981
0.00198101
0.00191358
0.234486
0.132722
0.0867401
0.062348
0.047807
0.0383597
0.0318121
0.0270437
0.0234341
0.0206161
0.0183606
0.0165179
0.0149866
0.0136956
0.0125937
0.0116432
0.0108157
0.0100894
0.00944732
0.00887614
0.00836511
0.00790553
0.00749031
0.00711357
0.00677044
0.00645682
0.00616923
0.00590474
0.00566082
0.0054353
0.00522629
0.00503217
0.0048515
0.00468304
0.00452568
0.00437844
0.00424046
0.00411098
0.00398929
0.0038748
0.00376693
0.00366522
0.00356917
0.00347844
0.00339258
0.00331135
0.00323435
0.00316139
0.00309213
0.00302643
0.00296397
0.00290469
0.00284824
0.00279465
0.00274356
0.00269505
0.00264876
0.00260477
0.00256279
0.00252288
0.00248481
0.00244859
0.00241406
0.00238119
0.00234989
0.00232009
0.00229173
0.00226475
0.00223909
0.00221471
0.00219154
0.00216956
0.00214869
0.00212895
0.00211021
0.00209254
0.00207581
0.00206007
0.0020452
0.00203127
0.00201817
0.0020059
0.00199449
0.00198378
0.00197395
0.00196473
0.00195638
0.00194856
0.00194156
0.00193516
0.00192949
0.00192417
0.00191963
0.00191571
0.00191269
0.00190979
0.00190494
0.00190363
0.00189289
0.00182974
0.234484
0.132711
0.086728
0.06234
0.0478064
0.0383683
0.0318303
0.0270713
0.0234703
0.0206599
0.0184107
0.0165733
0.0150461
0.0137583
0.0126587
0.0117097
0.0108832
0.0101573
0.00951523
0.00894365
0.00843191
0.00797136
0.00755496
0.00717687
0.00683225
0.00651701
0.00622773
0.00596146
0.00571571
0.00548832
0.0052774
0.00508136
0.00489874
0.00472833
0.004569
0.00441981
0.00427987
0.00414845
0.00402481
0.0039084
0.0037986
0.00369498
0.00359704
0.00350442
0.0034167
0.0033336
0.00325476
0.00317997
0.00310888
0.00304138
0.00297712
0.00291604
0.00285781
0.00280244
0.00274959
0.0026993
0.00265125
0.00260552
0.00256181
0.00252015
0.00248034
0.00244237
0.00240611
0.00237149
0.00233846
0.0023069
0.0022768
0.00224806
0.00222065
0.0021945
0.00216957
0.00214581
0.00212317
0.00210163
0.0020811
0.00206163
0.00204308
0.00202552
0.00200882
0.00199304
0.00197809
0.00196397
0.00195068
0.0019381
0.00192638
0.00191527
0.00190501
0.00189529
0.00188638
0.00187806
0.00187046
0.00186325
0.00185672
0.00185087
0.00184605
0.00184147
0.00183411
0.00182977
0.00181758
0.00175956
0.234483
0.132702
0.0867161
0.0623301
0.047801
0.038369
0.0318381
0.0270864
0.0234923
0.0206884
0.018445
0.0166126
0.0150896
0.0138053
0.0127085
0.0117617
0.0109367
0.010212
0.00957059
0.00899934
0.00848762
0.00802682
0.00760993
0.00723116
0.0068857
0.00656948
0.0062791
0.00601164
0.00576461
0.00553587
0.00532355
0.00512606
0.00494196
0.00477003
0.00460916
0.00445842
0.0043169
0.0041839
0.00405867
0.00394066
0.00382928
0.00372406
0.00362452
0.00353031
0.003441
0.00335632
0.0032759
0.00319952
0.00312687
0.0030578
0.00299198
0.00292934
0.00286957
0.00281264
0.00275825
0.00270641
0.00265683
0.00260955
0.0025643
0.00252111
0.00247979
0.00244027
0.00240249
0.00236633
0.00233177
0.00229867
0.00226705
0.00223675
0.0022078
0.00218009
0.00215361
0.00212829
0.00210407
0.00208096
0.00205885
0.00203778
0.00201763
0.00199847
0.00198015
0.00196275
0.00194616
0.0019304
0.00191545
0.00190121
0.00188782
0.00187503
0.00186307
0.00185165
0.00184103
0.00183098
0.00182166
0.00181273
0.00180442
0.00179681
0.0017903
0.00178431
0.00177498
0.00176711
0.00175433
0.00170162
0.234481
0.132693
0.0867049
0.0623196
0.0477933
0.0383654
0.0318393
0.027093
0.0235044
0.0207057
0.0184673
0.0166394
0.0151204
0.0138395
0.0127456
0.0118012
0.0109783
0.010255
0.00961485
0.00904445
0.00853327
0.00807276
0.00765594
0.00727703
0.00693125
0.00661457
0.00632359
0.00605542
0.00580758
0.00557795
0.00536467
0.00516615
0.00498097
0.00480792
0.00464589
0.00449395
0.00435121
0.00421695
0.00409047
0.00397117
0.00385849
0.00375197
0.00365112
0.00355558
0.00346495
0.00337893
0.00329717
0.00321947
0.00314548
0.00307506
0.0030079
0.00294393
0.00288281
0.00282455
0.00276881
0.00271564
0.00266472
0.00261609
0.0025695
0.00252496
0.00248229
0.00244144
0.00240233
0.00236481
0.00232891
0.00229444
0.00226148
0.00222981
0.00219952
0.00217043
0.00214259
0.00211588
0.00209029
0.00206578
0.00204228
0.00201981
0.00199825
0.00197767
0.00195792
0.00193909
0.00192106
0.00190385
0.00188744
0.00187173
0.00185685
0.00184258
0.00182911
0.00181619
0.00180405
0.00179247
0.0017816
0.00177116
0.00176124
0.00175205
0.00174395
0.00173678
0.00172596
0.00171486
0.00170112
0.00165402
0.23448
0.132685
0.0866946
0.0623094
0.0477847
0.0383594
0.0318367
0.0270941
0.0235097
0.0207151
0.0184808
0.0166567
0.0151412
0.0138635
0.0127724
0.0118306
0.0110097
0.0102882
0.00964949
0.00908026
0.00856999
0.00811015
0.00769378
0.00731514
0.00696946
0.00665272
0.00636155
0.00609307
0.00584482
0.00561468
0.00540081
0.00520163
0.00501572
0.00484189
0.00467902
0.00452621
0.00438256
0.00424736
0.00411989
0.0039996
0.0038859
0.00377833
0.00367642
0.00357981
0.00348809
0.00340098
0.00331812
0.00323929
0.00316418
0.00309264
0.00302434
0.00295923
0.00289697
0.00283756
0.00278067
0.00272634
0.00267427
0.00262448
0.00257673
0.00253102
0.00248718
0.00244514
0.00240486
0.00236616
0.0023291
0.00229344
0.00225929
0.00222642
0.00219494
0.00216464
0.0021356
0.00210767
0.00208087
0.00205514
0.00203041
0.0020067
0.0019839
0.00196207
0.00194107
0.00192097
0.00190167
0.00188318
0.00186548
0.00184848
0.00183228
0.00181671
0.0018019
0.00178765
0.00177416
0.00176123
0.001749
0.0017372
0.00172589
0.00171529
0.00170569
0.00169753
0.00168553
0.00167196
0.0016565
0.00161532
0.234479
0.132678
0.0866851
0.0622998
0.047776
0.0383524
0.0318319
0.0270921
0.0235105
0.0207191
0.018488
0.016667
0.0151546
0.0138796
0.0127911
0.0118516
0.0110327
0.0103131
0.00967596
0.00910807
0.00859892
0.00813999
0.00772434
0.00734625
0.00700096
0.00668448
0.00639343
0.00612496
0.00587661
0.00564627
0.00543212
0.00523258
0.00504624
0.00487192
0.00470851
0.0045551
0.00441081
0.00427493
0.00414675
0.0040257
0.00391123
0.00380286
0.00370012
0.00360266
0.00351008
0.00342208
0.00333832
0.00325859
0.00318255
0.00311008
0.00304084
0.00297477
0.00291155
0.00285117
0.00279331
0.002738
0.00268493
0.00263415
0.0025854
0.00253868
0.00249384
0.00245078
0.00240948
0.00236974
0.00233165
0.00229495
0.00225978
0.00222587
0.00219335
0.00216199
0.00213189
0.0021029
0.00207503
0.00204822
0.00202242
0.00199762
0.00197372
0.00195079
0.00192869
0.00190748
0.00188705
0.00186744
0.00184859
0.00183046
0.00181309
0.00179638
0.00178039
0.00176497
0.00175029
0.00173616
0.00172272
0.00170972
0.00169718
0.00168533
0.00167435
0.00166531
0.00165248
0.00163666
0.00161948
0.00158404
0.234477
0.132672
0.0866765
0.0622908
0.0477676
0.0383451
0.0318262
0.0270882
0.0235088
0.0207197
0.0184909
0.0166724
0.0151624
0.0138898
0.0128035
0.011866
0.0110491
0.0103312
0.00969564
0.00912912
0.00862117
0.00816328
0.00774852
0.00737117
0.00702648
0.00671046
0.00641976
0.00615153
0.00590332
0.00567303
0.00545884
0.00525919
0.00507267
0.0048981
0.00473439
0.00458061
0.00443592
0.00429958
0.00417092
0.00404934
0.0039343
0.00382534
0.00372199
0.00362389
0.00353064
0.00344195
0.00335749
0.00327703
0.00320025
0.00312702
0.00305701
0.00299016
0.00292614
0.00286496
0.00280628
0.00275014
0.00269625
0.00264462
0.00259503
0.00254745
0.00250175
0.00245782
0.00241565
0.00237502
0.00233605
0.00229844
0.00226237
0.00222754
0.00219412
0.00216184
0.00213083
0.00210089
0.0020721
0.00204434
0.00201759
0.00199184
0.00196699
0.00194309
0.00192001
0.00189782
0.00187641
0.0018558
0.00183596
0.00181682
0.00179843
0.0017807
0.00176367
0.00174722
0.00173149
0.00171631
0.00170179
0.00168775
0.00167413
0.00166116
0.00164898
0.00163902
0.00162573
0.00160806
0.00158901
0.00155886
0.234477
0.132666
0.0866686
0.0622825
0.0477597
0.038338
0.0318201
0.0270833
0.0235054
0.020718
0.018491
0.0166743
0.0151662
0.0138955
0.0128112
0.0118755
0.0110602
0.0103439
0.00970978
0.0091446
0.00863785
0.00818104
0.00776722
0.0073907
0.00704672
0.0067313
0.00644111
0.00617328
0.00592538
0.00569532
0.00548128
0.00528171
0.0050952
0.00492058
0.00475676
0.00460282
0.00445791
0.00432132
0.00419235
0.00407044
0.00395503
0.00384566
0.00374187
0.00364331
0.00354956
0.00346036
0.00337536
0.00329434
0.00321699
0.00314316
0.00307254
0.00300507
0.00294041
0.00287857
0.00281923
0.00276241
0.00270783
0.00265549
0.0026052
0.00255689
0.00251048
0.0024658
0.00242289
0.0023815
0.00234177
0.0023034
0.00226656
0.00223093
0.00219673
0.00216364
0.00213184
0.0021011
0.0020715
0.00204291
0.00201534
0.00198875
0.00196307
0.00193832
0.00191439
0.00189134
0.00186906
0.00184759
0.00182686
0.00180684
0.00178755
0.00176893
0.00175099
0.00173362
0.00171696
0.00170086
0.0016854
0.00167043
0.00165586
0.0016419
0.00162868
0.00161773
0.00160434
0.00158525
0.00156423
0.00153852
0.234476
0.132661
0.0866613
0.0622749
0.0477523
0.0383312
0.031814
0.0270782
0.0235013
0.020715
0.0184894
0.0166741
0.0151674
0.0138982
0.0128153
0.0118811
0.0110673
0.0103524
0.00971954
0.00915557
0.00864996