/*--------------------------------*- C++ -*----------------------------------*\
| =========                 |                                                 |
| \\      /  F ield         | OpenFOAM: The Open Source CFD Toolbox           |
|  \\    /   O peration     | Version:  3.0.0                                 |
|   \\  /    A nd           | Web:      www.OpenFOAM.org                      |
|    \\/     M anipulation  |                                                 |
\*---------------------------------------------------------------------------*/
FoamFile
{
    version     2.0;
    format      ascii;
    class       volScalarField;
    location    "275";
    object      nut;
}
// * * * * * * * * * * * * * * * * * * * * * * * * * * * * * * * * * * * * * //

dimensions      [0 2 -1 0 0 0 0];

internalField   nonuniform List<scalar> 
10000
(
7.99824e-05
5.02419e-05
3.83737e-05
3.24344e-05
2.89524e-05
2.66907e-05
2.51158e-05
2.39631e-05
2.30867e-05
2.23994e-05
2.18462e-05
2.13915e-05
2.10097e-05
2.06838e-05
2.04017e-05
2.01549e-05
1.99365e-05
1.97416e-05
1.95663e-05
1.94076e-05
1.92631e-05
1.91306e-05
1.90086e-05
1.88956e-05
1.87907e-05
1.86926e-05
1.86007e-05
1.85142e-05
1.84326e-05
1.83552e-05
1.82819e-05
1.8212e-05
1.81454e-05
1.80818e-05
1.80209e-05
1.79624e-05
1.79063e-05
1.78523e-05
1.78004e-05
1.77502e-05
1.77019e-05
1.76551e-05
1.76098e-05
1.7566e-05
1.75235e-05
1.74823e-05
1.74423e-05
1.74034e-05
1.73656e-05
1.73289e-05
1.72931e-05
1.72582e-05
1.72243e-05
1.71912e-05
1.71589e-05
1.71274e-05
1.70966e-05
1.70665e-05
1.70371e-05
1.70084e-05
1.69803e-05
1.69529e-05
1.6926e-05
1.68997e-05
1.68738e-05
1.68486e-05
1.68238e-05
1.67995e-05
1.67756e-05
1.67523e-05
1.67293e-05
1.67069e-05
1.66847e-05
1.6663e-05
1.66417e-05
1.66207e-05
1.66001e-05
1.65799e-05
1.65599e-05
1.65404e-05
1.6521e-05
1.65022e-05
1.64834e-05
1.64652e-05
1.64469e-05
1.64294e-05
1.64115e-05
1.63947e-05
1.63772e-05
1.63612e-05
1.63437e-05
1.63291e-05
1.63108e-05
1.6298e-05
1.62789e-05
1.62688e-05
1.62486e-05
1.62423e-05
1.61879e-05
1.61556e-05
0.000374232
0.000225297
0.000171066
0.000141325
0.000121086
0.000106003
9.42403e-05
8.48551e-05
7.72801e-05
7.11142e-05
6.6074e-05
6.19402e-05
5.85172e-05
5.56898e-05
5.33551e-05
5.14236e-05
4.98228e-05
4.84964e-05
4.73991e-05
4.64908e-05
4.57391e-05
4.51165e-05
4.46025e-05
4.4177e-05
4.38267e-05
4.35368e-05
4.32996e-05
4.31034e-05
4.29427e-05
4.28092e-05
4.27027e-05
4.26145e-05
4.25458e-05
4.24893e-05
4.24456e-05
4.24108e-05
4.23847e-05
4.2364e-05
4.23502e-05
4.2339e-05
4.23326e-05
4.23275e-05
4.23262e-05
4.23251e-05
4.23264e-05
4.23279e-05
4.23306e-05
4.23338e-05
4.23368e-05
4.23401e-05
4.23435e-05
4.23465e-05
4.23494e-05
4.23521e-05
4.23547e-05
4.23566e-05
4.23583e-05
4.23595e-05
4.23603e-05
4.2361e-05
4.23609e-05
4.23608e-05
4.23596e-05
4.23588e-05
4.23564e-05
4.23549e-05
4.23513e-05
4.23493e-05
4.23447e-05
4.2342e-05
4.23369e-05
4.2333e-05
4.23277e-05
4.23226e-05
4.23171e-05
4.2311e-05
4.23051e-05
4.22986e-05
4.22917e-05
4.22851e-05
4.22771e-05
4.22707e-05
4.22616e-05
4.22555e-05
4.22455e-05
4.22395e-05
4.22301e-05
4.22221e-05
4.22116e-05
4.22081e-05
4.21869e-05
4.22042e-05
4.21523e-05
4.21923e-05
4.21364e-05
4.22728e-05
4.21482e-05
4.18665e-05
3.91494e-05
3.25514e-05
0.000562798
0.000367862
0.000286568
0.000242888
0.000214125
0.000192514
0.000174968
0.000160131
0.000147341
0.000136205
0.00012646
0.000117893
0.000110404
0.000103871
9.81442e-05
9.31185e-05
8.87261e-05
8.49004e-05
8.15767e-05
7.86914e-05
7.61914e-05
7.40296e-05
7.21676e-05
7.05644e-05
6.91912e-05
6.8015e-05
6.70155e-05
6.61639e-05
6.54504e-05
6.48475e-05
6.43493e-05
6.3931e-05
6.35937e-05
6.33137e-05
6.30933e-05
6.29187e-05
6.27861e-05
6.26874e-05
6.26213e-05
6.25771e-05
6.25581e-05
6.2555e-05
6.2571e-05
6.25966e-05
6.26371e-05
6.26845e-05
6.27416e-05
6.28043e-05
6.28717e-05
6.29442e-05
6.30198e-05
6.30976e-05
6.31779e-05
6.32598e-05
6.33426e-05
6.34254e-05
6.35089e-05
6.35921e-05
6.36746e-05
6.37567e-05
6.38374e-05
6.39181e-05
6.39965e-05
6.40752e-05
6.41504e-05
6.42268e-05
6.42988e-05
6.4373e-05
6.44418e-05
6.45132e-05
6.45791e-05
6.46468e-05
6.47105e-05
6.47743e-05
6.48358e-05
6.4896e-05
6.49549e-05
6.50121e-05
6.50676e-05
6.51224e-05
6.5174e-05
6.52271e-05
6.52753e-05
6.53264e-05
6.53716e-05
6.54213e-05
6.54657e-05
6.55106e-05
6.55514e-05
6.55991e-05
6.56269e-05
6.56944e-05
6.56841e-05
6.57658e-05
6.57532e-05
6.59634e-05
6.58499e-05
6.54307e-05
6.24162e-05
5.15621e-05
0.000656674
0.000461455
0.000368801
0.000317394
0.000284225
0.00026008
0.000240799
0.000224468
0.000210156
0.000197359
0.000185793
0.000175256
0.000165649
0.00015686
0.000148847
0.000141557
0.000134923
0.000128906
0.000123449
0.000118492
0.000114017
0.000109989
0.000106375
0.000103136
0.000100247
9.76721e-05
9.539e-05
9.33662e-05
9.15872e-05
9.00183e-05
8.86526e-05
8.74523e-05
8.64227e-05
8.5515e-05
8.47521e-05
8.40931e-05
8.35367e-05
8.30697e-05
8.26821e-05
8.23592e-05
8.21057e-05
8.1902e-05
8.17515e-05
8.16371e-05
8.15689e-05
8.15267e-05
8.15177e-05
8.15308e-05
8.15666e-05
8.16236e-05
8.16953e-05
8.17815e-05
8.18816e-05
8.19925e-05
8.21115e-05
8.2238e-05
8.23723e-05
8.25107e-05
8.26544e-05
8.28015e-05
8.29509e-05
8.31041e-05
8.32565e-05
8.3412e-05
8.35652e-05
8.37224e-05
8.38752e-05
8.40326e-05
8.41838e-05
8.43398e-05
8.44891e-05
8.46419e-05
8.47894e-05
8.49381e-05
8.50833e-05
8.52278e-05
8.53698e-05
8.55105e-05
8.56485e-05
8.57851e-05
8.59178e-05
8.60513e-05
8.61797e-05
8.63091e-05
8.64334e-05
8.65593e-05
8.66817e-05
8.68011e-05
8.69182e-05
8.70377e-05
8.71448e-05
8.72772e-05
8.73431e-05
8.74891e-05
8.75623e-05
8.78299e-05
8.78042e-05
8.74729e-05
8.4473e-05
6.90731e-05
0.00070423
0.00052264
0.000427756
0.00037271
0.000337033
0.000311416
0.000291387
0.00027475
0.000260309
0.00024739
0.000235624
0.000224764
0.000214682
0.000205266
0.000196465
0.000188237
0.000180544
0.000173338
0.000166612
0.000160352
0.000154534
0.000149139
0.000144125
0.000139486
0.000135216
0.000131288
0.000127691
0.000124399
0.000121406
0.000118681
0.000116222
0.000113991
0.000111998
0.000110195
0.000108598
0.000107153
0.000105908
0.000104796
0.00010381
0.000102949
0.000102215
0.000101571
0.000101027
0.00010056
0.00010018
9.986e-05
9.96145e-05
9.94081e-05
9.92587e-05
9.91608e-05
9.9094e-05
9.90679e-05
9.90769e-05
9.91125e-05
9.91718e-05
9.92558e-05
9.93613e-05
9.94829e-05
9.96197e-05
9.97726e-05
9.99348e-05
0.000100113
0.000100293
0.000100486
0.000100681
0.000100887
0.000101093
0.000101309
0.000101521
0.000101743
0.00010196
0.000102184
0.000102405
0.00010263
0.000102852
0.000103076
0.000103297
0.000103521
0.000103741
0.00010396
0.000104177
0.000104395
0.000104608
0.000104821
0.000105032
0.000105241
0.00010545
0.000105653
0.000105857
0.000106057
0.000106259
0.00010646
0.000106629
0.000106853
0.000107024
0.00010733
0.000107426
0.000107345
0.00010439
8.35884e-05
0.000728798
0.000562603
0.000470404
0.000414584
0.000377692
0.000351222
0.000330831
0.000314138
0.000299829
0.000287173
0.000275728
0.000265174
0.000255339
0.00024609
0.000237353
0.000229072
0.000221214
0.000213735
0.000206622
0.000199865
0.000193445
0.000187347
0.000181583
0.000176136
0.000171006
0.000166157
0.000161604
0.000157335
0.00015335
0.000149629
0.00014618
0.000142971
0.000140019
0.000137284
0.000134786
0.000132479
0.000130387
0.000128491
0.000126741
0.000125188
0.000123801
0.000122526
0.0001214
0.000120399
0.000119525
0.000118743
0.000118073
0.000117484
0.000116995
0.000116571
0.000116208
0.000115929
0.000115708
0.000115533
0.000115407
0.000115332
0.000115297
0.000115296
0.000115328
0.000115394
0.000115485
0.000115602
0.000115739
0.000115898
0.000116072
0.000116266
0.000116468
0.00011669
0.000116916
0.000117159
0.000117403
0.000117662
0.000117921
0.00011819
0.00011846
0.000118738
0.000119015
0.000119302
0.000119582
0.000119868
0.000120154
0.000120442
0.00012073
0.000121016
0.000121305
0.00012159
0.000121879
0.000122161
0.000122446
0.000122726
0.000123017
0.000123291
0.000123546
0.000123878
0.000124123
0.000124495
0.000124663
0.000124901
0.000121872
9.4528e-05
0.00074149
0.000588611
0.0005012
0.000446521
0.00040956
0.000382792
0.0003622
0.000345502
0.00033139
0.000319052
0.00030797
0.00029783
0.000288438
0.00027962
0.00027128
0.000263341
0.000255761
0.000248494
0.000241514
0.000234806
0.000228356
0.000222145
0.000216182
0.000210451
0.00020495
0.000199686
0.000194661
0.00018986
0.00018528
0.00018092
0.000176792
0.000172876
0.000169191
0.000165709
0.00016245
0.000159387
0.000156529
0.000153878
0.0001514
0.000149104
0.000147017
0.000145047
0.00014327
0.000141653
0.000140177
0.00013881
0.000137595
0.000136503
0.000135527
0.000134655
0.000133871
0.000133205
0.000132617
0.000132094
0.00013166
0.000131307
0.000131008
0.000130765
0.000130584
0.000130456
0.000130371
0.000130328
0.000130327
0.000130366
0.000130431
0.000130532
0.000130655
0.000130812
0.000130983
0.000131182
0.000131393
0.000131628
0.000131873
0.000132136
0.000132408
0.000132695
0.000132987
0.000133294
0.000133603
0.000133922
0.000134244
0.000134574
0.000134908
0.000135243
0.000135586
0.000135927
0.000136275
0.000136618
0.00013697
0.000137313
0.000137681
0.000138013
0.000138355
0.000138759
0.000139116
0.000139493
0.000139698
0.000140291
0.000136923
0.000101843
0.000747927
0.000605317
0.000523217
0.000470791
0.000434637
0.000408101
0.000387576
0.000370962
0.000357008
0.000344916
0.000334178
0.000324443
0.000315463
0.000307077
0.000299193
0.000291703
0.00028455
0.000277683
0.000271067
0.000264676
0.000258494
0.000252499
0.00024669
0.000241055
0.000235589
0.000230293
0.000225164
0.000220197
0.000215411
0.000210794
0.000206347
0.000202059
0.000197955
0.000194016
0.00019026
0.000186674
0.000183262
0.00018003
0.000176972
0.000174067
0.000171365
0.000168794
0.000166403
0.000164163
0.000162106
0.000160127
0.000158359
0.000156724
0.000155199
0.000153802
0.000152527
0.00015138
0.000150339
0.00014939
0.000148544
0.000147814
0.00014714
0.000146552
0.000146061
0.000145637
0.000145273
0.000144972
0.000144739
0.00014456
0.000144426
0.000144344
0.000144304
0.000144311
0.000144347
0.000144426
0.000144531
0.000144673
0.000144836
0.000145028
0.00014524
0.000145477
0.00014573
0.000146004
0.000146292
0.000146596
0.00014691
0.00014724
0.000147579
0.000147926
0.000148287
0.000148649
0.000149027
0.0001494
0.000149791
0.000150168
0.000150591
0.000150959
0.00015136
0.000151816
0.000152263
0.000152659
0.00015289
0.000153773
0.000149663
0.000105771
0.000751067
0.000615831
0.000538701
0.000489032
0.000454274
0.000428421
0.000408244
0.000391855
0.000378103
0.000366237
0.000355765
0.000346341
0.000337725
0.000329744
0.000322259
0.000315176
0.000308452
0.000302011
0.000295815
0.000289827
0.000284027
0.000278389
0.000272904
0.000267557
0.000262342
0.000257252
0.000252287
0.000247436
0.000242713
0.0002381
0.00023362
0.000229263
0.000225037
0.000220925
0.00021695
0.000213105
0.000209395
0.000205822
0.000202398
0.000199094
0.000195959
0.000192946
0.000190089
0.000187357
0.000184805
0.000182345
0.000180047
0.000177901
0.00017587
0.000173959
0.00017221
0.000170574
0.000169044
0.000167631
0.000166335
0.000165162
0.000164076
0.000163075
0.000162207
0.000161405
0.000160679
0.000160045
0.000159504
0.000159022
0.000158603
0.000158259
0.000157975
0.000157751
0.00015757
0.000157451
0.000157375
0.000157347
0.000157355
0.000157406
0.00015749
0.000157611
0.00015776
0.00015794
0.000158146
0.000158378
0.000158629
0.000158906
0.000159201
0.000159511
0.000159843
0.000160183
0.000160548
0.00016091
0.000161303
0.000161678
0.000162121
0.000162494
0.00016292
0.00016339
0.000163908
0.000164388
0.000164568
0.000165645
0.000160235
0.000106694
0.0007525
0.00062227
0.000549358
0.000502516
0.00046948
0.00044464
0.000425066
0.000409066
0.000395599
0.000383984
0.000373759
0.000364599
0.000356269
0.0003486
0.000341459
0.000334752
0.000328393
0.000322321
0.000316515
0.000310919
0.000305509
0.000300255
0.000295143
0.000290154
0.000285279
0.000280505
0.000275832
0.000271245
0.000266753
0.000262339
0.00025802
0.000253779
0.00024963
0.000245573
0.000241613
0.000237735
0.000233956
0.00023027
0.000226699
0.000223215
0.000219857
0.000216596
0.00021346
0.000210421
0.000207527
0.000204727
0.000202049
0.000199505
0.000197076
0.000194755
0.000192564
0.000190508
0.00018853
0.00018669
0.00018498
0.00018337
0.000181854
0.000180439
0.000179154
0.000177964
0.000176852
0.000175833
0.000174939
0.00017409
0.000173331
0.000172668
0.000172079
0.000171554
0.000171091
0.000170709
0.000170383
0.000170116
0.000169899
0.000169742
0.000169632
0.000169569
0.000169548
0.000169571
0.000169631
0.000169731
0.000169859
0.000170025
0.000170218
0.000170437
0.000170688
0.000170953
0.000171256
0.00017156
0.000171909
0.000172236
0.000172657
0.000172998
0.000173405
0.000173846
0.000174389
0.000174944
0.0001751
0.000176177
0.000168959
0.000105178
0.000753084
0.00062608
0.000556502
0.000512276
0.000481066
0.000457439
0.000438665
0.000423207
0.00041013
0.000398821
0.00038886
0.000379949
0.000371871
0.000364462
0.000357596
0.000351179
0.000345131
0.000339397
0.000333919
0.000328652
0.000323591
0.000318691
0.000313934
0.000309299
0.000304774
0.000300343
0.000296002
0.000291735
0.000287545
0.000283418
0.000279362
0.000275363
0.000271429
0.000267554
0.000263742
0.000259997
0.000256324
0.000252704
0.000249165
0.000245683
0.00024229
0.000238964
0.00023573
0.000232566
0.000229505
0.000226527
0.000223635
0.000220847
0.000218155
0.00021556
0.000213058
0.000210682
0.00020838
0.000206193
0.000204108
0.000202149
0.000200239
0.000198468
0.000196812
0.000195246
0.000193749
0.000192358
0.000191087
0.000189896
0.00018877
0.000187763
0.000186834
0.000185964
0.000185182
0.000184498
0.000183874
0.000183313
0.00018282
0.000182402
0.000182041
0.000181737
0.000181487
0.000181297
0.000181153
0.00018106
0.000181007
0.000181005
0.000181039
0.000181112
0.000181224
0.000181363
0.00018155
0.000181745
0.000181997
0.00018223
0.000182579
0.000182845
0.000183184
0.000183557
0.000184066
0.000184672
0.000184776
0.000185813
0.000176105
0.00010184
0.000753272
0.000628239
0.000561144
0.000519166
0.000489718
0.000467385
0.000449535
0.00043474
0.00042215
0.000411215
0.000401557
0.00039291
0.000385075
0.000377901
0.000371272
0.000365096
0.0003593
0.000353827
0.000348626
0.000343659
0.000338889
0.000334281
0.000329833
0.000325513
0.000321308
0.000317198
0.000313178
0.00030923
0.000305354
0.000301535
0.000297777
0.000294066
0.000290406
0.00028679
0.00028322
0.000279693
0.000276212
0.000272772
0.000269393
0.000266045
0.000262754
0.000259506
0.000256321
0.000253182
0.00025011
0.000247101
0.00024415
0.000241274
0.000238465
0.000235737
0.000233069
0.000230504
0.000227999
0.00022559
0.000223249
0.00022103
0.000218856
0.000216793
0.000214813
0.000212957
0.000211114
0.000209425
0.000207825
0.000206307
0.000204836
0.000203492
0.000202231
0.000201052
0.000199925
0.000198935
0.000197984
0.000197104
0.000196312
0.000195607
0.000194956
0.000194372
0.000193854
0.000193409
0.000193014
0.000192682
0.0001924
0.000192182
0.000192007
0.000191882
0.000191805
0.000191767
0.000191788
0.000191824
0.000191926
0.000192018
0.000192244
0.000192391
0.00019261
0.000192872
0.000193292
0.000193901
0.000193927
0.00019488
0.000182077
9.73259e-05
0.000753293
0.000629398
0.000564054
0.000523892
0.00049603
0.000474965
0.000458091
0.000444037
0.000432012
0.000421515
0.000412209
0.000403854
0.000396274
0.000389331
0.000382922
0.000376961
0.000371381
0.000366126
0.000361151
0.000356416
0.000351889
0.000347544
0.000343354
0.000339292
0.000335358
0.000331528
0.000327792
0.000324133
0.000320547
0.000317021
0.000313552
0.00031013
0.000306754
0.000303417
0.000300117
0.00029685
0.00029362
0.000290416
0.000287248
0.000284108
0.000281009
0.000277936
0.000274899
0.000271893
0.000268925
0.000266002
0.000263113
0.000260276
0.000257479
0.000254744
0.000252043
0.000249419
0.000246835
0.00024433
0.000241862
0.000239496
0.000237164
0.000234925
0.000232733
0.000230663
0.000228608
0.000226665
0.000224792
0.000223027
0.000221262
0.000219658
0.000218109
0.000216645
0.00021521
0.000213913
0.000212674
0.000211508
0.000210407
0.000209414
0.000208457
0.000207581
0.000206785
0.000206066
0.000205392
0.000204793
0.000204254
0.000203788
0.000203366
0.000203006
0.000202701
0.000202446
0.000202257
0.000202092
0.000201999
0.000201909
0.000201964
0.00020195
0.000202001
0.00020211
0.000202393
0.000202947
0.000202879
0.000203658
0.00018735
9.22686e-05
0.000753258
0.000629974
0.000565801
0.00052703
0.000500512
0.000480615
0.000464702
0.00045142
0.000440007
0.000429999
0.000421088
0.00041306
0.000405756
0.000399056
0.000392866
0.00038711
0.000381726
0.000376664
0.000371882
0.000367342
0.000363016
0.000358876
0.000354899
0.000351067
0.000347361
0.000343757
0.000340259
0.000336846
0.000333512
0.000330243
0.000327035
0.000323876
0.000320765
0.000317693
0.000314658
0.000311653
0.00030868
0.00030573
0.000302808
0.000299907
0.000297029
0.000294173
0.000291344
0.000288537
0.000285745
0.000282985
0.000280242
0.000277534
0.000274844
0.0002722
0.000269571
0.000266997
0.000264441
0.000261948
0.000259468
0.000257067
0.000254684
0.000252379
0.000250091
0.000247906
0.000245734
0.000243648
0.000241601
0.000239662
0.000237725
0.000235901
0.000234125
0.000232448
0.000230764
0.000229237
0.000227749
0.000226332
0.000224953
0.000223692
0.000222479
0.000221336
0.000220266
0.000219275
0.000218318
0.000217455
0.000216656
0.000215928
0.000215242
0.000214628
0.000214077
0.000213582
0.000213154
0.000212759
0.000212438
0.000212136
0.000211982
0.000211772
0.000211617
0.000211537
0.000211643
0.000212078
0.000211914
0.000212328
0.000192512
8.72189e-05
0.000753213
0.000630229
0.000566797
0.000529037
0.000503599
0.000484721
0.000469703
0.000457177
0.000446393
0.000436902
0.000428419
0.000420748
0.000413745
0.000407305
0.000401344
0.000395794
0.000390601
0.00038572
0.000381112
0.000376744
0.000372589
0.000368622
0.000364822
0.00036117
0.00035765
0.000354247
0.000350949
0.000347736
0.000344609
0.000341556
0.000338569
0.000335638
0.000332758
0.000329922
0.000327125
0.000324362
0.00032163
0.000318924
0.000316242
0.000313581
0.000310939
0.000308315
0.000305705
0.000303115
0.000300539
0.000297985
0.000295433
0.000292908
0.000290386
0.000287897
0.00028541
0.000282962
0.000280515
0.000278116
0.000275715
0.000273372
0.000271031
0.000268752
0.000266471
0.000264267
0.00026207
0.00025994
0.000257823
0.000255797
0.000253774
0.000251832
0.000249918
0.0002481
0.000246276
0.000244559
0.000242883
0.000241286
0.000239689
0.000238231
0.000236805
0.000235439
0.000234117
0.000232893
0.00023171
0.000230596
0.000229556
0.000228573
0.000227626
0.00022677
0.000225978
0.000225237
0.000224558
0.000223923
0.000223364
0.000222835
0.000222447
0.000222023
0.000221639
0.000221341
0.000221247
0.000221507
0.000221241
0.000221307
0.000197939
8.26228e-05
0.000753175
0.000630315
0.000567326
0.000530265
0.000505655
0.000487621
0.000473395
0.000461575
0.000451403
0.000442436
0.000434397
0.000427102
0.000420422
0.000414259
0.00040854
0.000403205
0.000398206
0.000393503
0.000389062
0.000384853
0.000380853
0.000377037
0.000373389
0.00036989
0.000366525
0.000363281
0.000360145
0.000357106
0.000354156
0.000351277
0.00034847
0.000345728
0.000343043
0.000340407
0.000337815
0.000335261
0.000332741
0.000330252
0.000327788
0.000325349
0.000322928
0.000320527
0.000318138
0.000315768
0.000313404
0.000311059
0.000308719
0.000306401
0.000304076
0.000301776
0.000299469
0.000297192
0.000294905
0.000292655
0.000290392
0.000288172
0.000285941
0.000283759
0.000281563
0.000279422
0.000277278
0.000275185
0.00027309
0.00027106
0.000269032
0.000267062
0.000265102
0.000263221
0.000261336
0.000259525
0.000257738
0.000256031
0.000254318
0.000252701
0.000251118
0.0002496
0.000248087
0.000246695
0.000245331
0.000244019
0.000242753
0.000241565
0.000240419
0.000239333
0.000238326
0.000237351
0.00023643
0.000235572
0.000234788
0.000234033
0.000233404
0.000232763
0.00023215
0.000231618
0.000231313
0.000231357
0.000231004
0.000230648
0.000204154
7.88363e-05
0.000753149
0.000630324
0.000567579
0.000530976
0.00050697
0.000489605
0.000476047
0.000464857
0.000455256
0.000446795
0.000439198
0.000432288
0.000425941
0.000420069
0.000414605
0.000409495
0.000404697
0.000400176
0.000395902
0.000391848
0.000387994
0.000384319
0.000380808
0.000377443
0.000374212
0.000371102
0.000368102
0.000365202
0.000362393
0.000359666
0.000357013
0.000354424
0.000351894
0.000349423
0.000347001
0.000344622
0.000342282
0.000339978
0.000337702
0.000335456
0.000333231
0.000331029
0.000328841
0.000326674
0.000324514
0.000322373
0.000320233
0.000318113
0.000315991
0.000313892
0.000311779
0.00030969
0.000307587
0.000305514
0.000303422
0.000301363
0.000299285
0.000297245
0.000295185
0.000293164
0.000291131
0.000289135
0.00028713
0.000285167
0.000283202
0.000281277
0.00027935
0.00027748
0.000275606
0.000273782
0.000271967
0.000270218
0.000268464
0.000266774
0.000265105
0.000263502
0.000261894
0.00026037
0.000258875
0.000257438
0.000256003
0.000254672
0.000253376
0.000252115
0.000250906
0.000249747
0.000248653
0.000247589
0.00024661
0.000245641
0.000244783
0.000243951
0.000243127
0.000242363
0.000241857
0.000241661
0.000241232
0.000240409
0.000211618
7.61108e-05
0.000753131
0.000630298
0.000567677
0.00053136
0.000507774
0.000490913
0.000477896
0.000467244
0.000458152
0.00045016
0.000442987
0.000436455
0.000430444
0.000424869
0.000419668
0.000414791
0.000410202
0.000405868
0.000401764
0.000397867
0.000394158
0.000390619
0.000387236
0.000383995
0.000380885
0.000377893
0.000375011
0.000372229
0.000369539
0.000366933
0.000364405
0.000361946
0.000359552
0.000357214
0.000354925
0.00035269
0.000350498
0.000348346
0.000346228
0.000344143
0.000342084
0.000340052
0.000338038
0.000336049
0.000334069
0.000332111
0.000330157
0.000328223
0.000326286
0.00032437
0.000322448
0.000320551
0.000318633
0.000316743
0.000314831
0.000312949
0.000311043
0.000309168
0.00030727
0.000305401
0.000303515
0.000301656
0.000299784
0.000297937
0.000296084
0.000294257
0.000292423
0.000290623
0.000288819
0.000287049
0.000285275
0.00028355
0.000281818
0.00028013
0.000278448
0.000276821
0.000275188
0.000273612
0.000272051
0.000270548
0.000269041
0.000267602
0.000266194
0.000264834
0.000263479
0.000262196
0.000260979
0.000259762
0.000258604
0.000257476
0.000256454
0.000255453
0.000254453
0.000253465
0.00025279
0.000252362
0.0002518
0.000250586
0.000220761
7.46423e-05
0.00075312
0.000630262
0.000567696
0.000531542
0.000508235
0.00049174
0.000479141
0.000468928
0.000460274
0.000452701
0.000445919
0.000439746
0.000434061
0.00042878
0.000423843
0.000419205
0.000414829
0.000410688
0.000406759
0.000403021
0.000399459
0.000396055
0.000392799
0.000389677
0.000386681
0.000383799
0.000381023
0.000378346
0.000375759
0.000373257
0.000370832
0.00036848
0.000366193
0.000363967
0.000361798
0.000359679
0.000357603
0.000355574
0.000353583
0.000351631
0.000349708
0.000347817
0.000345948
0.000344108
0.000342281
0.00034048
0.000338686
0.000336916
0.000335146
0.000333398
0.000331644
0.000329914
0.000328172
0.000326459
0.000324723
0.000323013
0.00032128
0.000319575
0.000317847
0.000316141
0.000314418
0.000312714
0.000310997
0.000309293
0.000307583
0.000305886
0.000304182
0.000302496
0.000300803
0.000299132
0.000297451
0.000295802
0.000294144
0.000292517
0.000290883
0.00028929
0.00028769
0.000286128
0.000284568
0.000283056
0.000281539
0.000280064
0.00027861
0.000277196
0.000275794
0.000274421
0.000273112
0.000271819
0.000270538
0.000269306
0.000268165
0.000267052
0.000265896
0.000264744
0.00026396
0.000263347
0.000262463
0.000261076
0.000231776
7.45837e-05
0.000753113
0.000630227
0.000567675
0.000531612
0.000508478
0.000492235
0.000479946
0.000470079
0.000461786
0.000454572
0.000448139
0.000442295
0.000436916
0.000431918
0.000427239
0.000422837
0.000418676
0.000414731
0.000410979
0.000407404
0.00040399
0.000400724
0.000397595
0.000394592
0.000391706
0.00038893
0.000386255
0.000383674
0.000381182
0.000378772
0.000376438
0.000374176
0.000371981
0.000369847
0.000367771
0.000365749
0.000363775
0.000361848
0.000359958
0.000358111
0.000356298
0.000354522
0.000352771
0.000351052
0.000349352
0.00034768
0.00034602
0.000344386
0.000342758
0.000341154
0.000339548
0.000337968
0.000336378
0.000334815
0.000333238
0.00033169
0.00033012
0.000328574
0.000327009
0.000325463
0.000323903
0.000322355
0.000320798
0.000319246
0.000317691
0.000316139
0.000314583
0.000313033
0.000311477
0.000309933
0.000308377
0.00030684
0.000305292
0.000303764
0.000302225
0.000300712
0.00029919
0.000297692
0.000296189
0.000294718
0.000293243
0.000291793
0.000290353
0.000288939
0.000287542
0.00028615
0.000284805
0.000283484
0.000282165
0.000280847
0.000279657
0.000278514
0.000277213
0.000275918
0.000275128
0.000274461
0.000273161
0.000271707
0.000244395
7.60574e-05
0.000753109
0.000630194
0.000567638
0.000531619
0.000508589
0.000492511
0.000480443
0.000470836
0.000462829
0.000455913
0.000449777
0.000444224
0.000439125
0.000434389
0.000429957
0.000425782
0.000421832
0.000418081
0.000414508
0.000411097
0.000407834
0.000404706
0.000401706
0.000398822
0.000396048
0.000393375
0.000390798
0.000388311
0.000385908
0.000383583
0.000381333
0.000379152
0.000377037
0.000374983
0.000372986
0.000371045
0.000369152
0.000367308
0.000365506
0.000363748
0.000362023
0.000360335
0.000358679
0.000357058
0.000355459
0.000353892
0.000352341
0.000350819
0.000349306
0.000347822
0.000346339
0.000344885
0.000343426
0.000341995
0.000340553
0.000339139
0.00033771
0.00033631
0.000334893
0.000333493
0.000332083
0.000330682
0.000329277
0.000327873
0.00032647
0.000325064
0.000323658
0.000322251
0.000320841
0.000319434
0.000318019
0.000316612
0.000315195
0.000313789
0.000312372
0.000310967
0.000309556
0.000308156
0.000306749
0.000305359
0.000303966
0.000302584
0.000301208
0.000299841
0.000298493
0.000297137
0.000295809
0.000294512
0.000293207
0.000291854
0.000290678
0.000289547
0.00028816
0.000286744
0.000285977
0.000285657
0.000284069
0.000282076
0.000258253
7.92505e-05
0.000753105
0.000630166
0.000567598
0.000531595
0.000508623
0.000492649
0.000480729
0.000471312
0.000463522
0.000456843
0.000450955
0.000445651
0.000440797
0.000436299
0.000432093
0.000428133
0.000424384
0.00042082
0.000417422
0.000414173
0.000411061
0.000408073
0.000405202
0.000402438
0.000399776
0.000397208
0.000394729
0.000392334
0.000390017
0.000387776
0.000385604
0.0003835
0.000381458
0.000379476
0.00037755
0.000375678
0.000373855
0.000372081
0.00037035
0.000368663
0.000367013
0.000365403
0.000363823
0.000362277
0.000360759
0.000359275
0.000357811
0.000356378
0.000354958
0.00035357
0.000352187
0.000350835
0.000349482
0.000348161
0.000346831
0.000345533
0.000344223
0.000342941
0.000341648
0.000340377
0.000339101
0.00033783
0.000336562
0.000335292
0.000334028
0.000332758
0.000331494
0.000330224
0.000328956
0.000327685
0.000326411
0.000325138
0.000323858
0.000322583
0.000321299
0.000320019
0.000318733
0.000317451
0.000316163
0.000314879
0.000313595
0.000312311
0.00031103
0.000309749
0.00030848
0.000307204
0.000305931
0.000304704
0.000303454
0.000302107
0.000300984
0.000299956
0.00029851
0.000296952
0.000296235
0.000296407
0.000294922
0.000292091
0.000272819
8.44516e-05
0.000753102
0.000630141
0.000567558
0.000531558
0.000508615
0.000492703
0.000480879
0.000471592
0.000463963
0.000457466
0.000451775
0.000446677
0.000442031
0.000437741
0.000433738
0.000429973
0.000426412
0.000423026
0.000419796
0.000416704
0.000413739
0.000410889
0.000408147
0.000405504
0.000402953
0.00040049
0.000398109
0.000395806
0.000393576
0.000391416
0.000389322
0.000387291
0.000385319
0.000383405
0.000381544
0.000379736
0.000377975
0.000376263
0.000374592
0.000372966
0.000371377
0.000369828
0.000368312
0.000366833
0.000365382
0.000363962
0.000362565
0.000361204
0.000359858
0.000358545
0.000357241
0.000355971
0.000354703
0.000353469
0.00035223
0.000351026
0.000349814
0.00034863
0.000347442
0.000346273
0.000345105
0.000343946
0.000342797
0.000341642
0.000340501
0.00033935
0.000338213
0.000337065
0.000335927
0.000334781
0.000333639
0.000332494
0.000331346
0.000330199
0.000329047
0.000327893
0.000326737
0.000325578
0.000324417
0.000323252
0.000322087
0.000320918
0.000319749
0.000318577
0.000317408
0.000316238
0.000315045
0.000313921
0.000312762
0.000311451
0.000310404
0.000309533
0.000308093
0.00030641
0.00030568
0.000306403
0.000305376
0.00030181
0.000287157
9.19564e-05
0.0007531
0.000630119
0.000567522
0.000531518
0.000508586
0.000492708
0.000480945
0.000471745
0.000464227
0.000457865
0.000452326
0.000447392
0.000442919
0.000438804
0.000434977
0.000431386
0.000427994
0.000424771
0.000421697
0.000418755
0.000415932
0.000413216
0.000410599
0.000408075
0.000405636
0.000403277
0.000400994
0.000398783
0.00039664
0.000394562
0.000392544
0.000390586
0.000388683
0.000386835
0.000385036
0.000383288
0.000381585
0.000379929
0.000378313
0.000376741
0.000375205
0.000373709
0.000372246
0.00037082
0.000369422
0.00036806
0.000366721
0.000365415
0.000364125
0.000362872
0.000361631
0.000360425
0.000359223
0.000358058
0.000356891
0.00035576
0.000354626
0.000353521
0.000352416
0.000351331
0.000350253
0.000349182
0.000348126
0.000347067
0.00034603
0.00034498
0.00034395
0.000342908
0.000341882
0.000340846
0.000339821
0.000338789
0.000337761
0.00033673
0.0003357
0.000334665
0.000333632
0.000332592
0.000331554
0.000330508
0.000329465
0.000328415
0.000327362
0.00032631
0.000325248
0.000324199
0.000323098
0.000322092
0.000321049
0.000319795
0.000318831
0.000318144
0.000316788
0.000315001
0.000314186
0.000315366
0.000315085
0.000311222
0.000300464
0.000102152
0.000753097
0.000630099
0.000567489
0.000531478
0.00050855
0.000492688
0.00048096
0.000471815
0.000464373
0.000458106
0.00045268
0.000447873
0.000443537
0.000439566
0.000435887
0.000432445
0.000429202
0.000426126
0.000423194
0.00042039
0.000417699
0.00041511
0.000412615
0.000410205
0.000407875
0.000405619
0.000403433
0.000401314
0.000399257
0.00039726
0.000395319
0.000393434
0.000391599
0.000389816
0.000388079
0.000386389
0.000384742
0.00038314
0.000381576
0.000380053
0.000378566
0.000377117
0.000375701
0.000374321
0.000372969
0.000371652
0.000370359
0.000369101
0.000367862
0.000366657
0.000365463