/*--------------------------------*- C++ -*----------------------------------*\
| =========                 |                                                 |
| \\      /  F ield         | OpenFOAM: The Open Source CFD Toolbox           |
|  \\    /   O peration     | Version:  3.0.0                                 |
|   \\  /    A nd           | Web:      www.OpenFOAM.org                      |
|    \\/     M anipulation  |                                                 |
\*---------------------------------------------------------------------------*/
FoamFile
{
    version     2.0;
    format      ascii;
    class       volScalarField;
    location    "275";
    object      p;
}
// * * * * * * * * * * * * * * * * * * * * * * * * * * * * * * * * * * * * * //

dimensions      [0 2 -2 0 0 0 0];

internalField   nonuniform List<scalar> 
10000
(
0.0447606
0.0140354
0.0103235
0.0101204
0.00919686
0.00868709
0.00840916
0.00812486
0.00785758
0.00762388
0.00740956
0.00720812
0.00701842
0.00683883
0.00666774
0.00650403
0.00634673
0.00619511
0.00604855
0.00590656
0.00576867
0.00563448
0.00550369
0.00537602
0.00525126
0.00512922
0.00500974
0.00489267
0.0047779
0.00466532
0.00455488
0.00444648
0.00434009
0.00423562
0.00413298
0.00403216
0.00393306
0.00383571
0.00374005
0.00364594
0.00355344
0.00346251
0.00337306
0.00328507
0.00319855
0.00311346
0.00302971
0.00294733
0.00286628
0.00278653
0.00270805
0.00263078
0.00255478
0.00247996
0.0024063
0.0023338
0.00226248
0.00219222
0.00212306
0.00205499
0.00198796
0.00192194
0.00185694
0.00179298
0.00172998
0.00166792
0.00160683
0.0015467
0.0014875
0.00142917
0.00137178
0.00131524
0.00125958
0.00120473
0.00115078
0.00109767
0.00104545
0.000994008
0.000943386
0.000893444
0.000844514
0.000796243
0.000749327
0.00070258
0.000657829
0.00061302
0.000570473
0.000527367
0.0004871
0.000445506
0.00040944
0.000371567
0.000341622
0.000306551
0.000291047
0.000269501
0.000306394
0.000326571
0.000563218
0.000238693
0.0260962
0.00952446
0.00957273
0.0100256
0.00918658
0.00867705
0.00839652
0.00811505
0.00785221
0.00762224
0.00741073
0.00721134
0.00702312
0.00684462
0.00667431
0.00651114
0.00635419
0.00620277
0.00605632
0.00591435
0.0057764
0.0056421
0.00551117
0.00538333
0.00525838
0.00513614
0.00501645
0.00489917
0.00478419
0.0046714
0.00456075
0.00445215
0.00434557
0.00424091
0.00413809
0.00403709
0.00393783
0.00384032
0.00374451
0.00365025
0.00355761
0.00346655
0.00337697
0.00328885
0.00320223
0.00311702
0.00303316
0.00295069
0.00286954
0.0027897
0.00271112
0.00263378
0.00255769
0.0024828
0.00240906
0.00233649
0.0022651
0.00219478
0.00212555
0.00205743
0.00199034
0.00192426
0.0018592
0.0017952
0.00173215
0.00167004
0.0016089
0.00154873
0.00148948
0.00143111
0.00137368
0.00131711
0.00126141
0.00120652
0.00115254
0.00109939
0.00104714
0.000995667
0.000945016
0.000895044
0.000846089
0.000797788
0.000750847
0.000704072
0.000659297
0.000614462
0.000571888
0.000528755
0.000488476
0.000446842
0.000410777
0.000372834
0.000342897
0.000307799
0.00029236
0.000270557
0.00030632
0.000321922
0.000550798
0.000235321
0.0214776
0.00976963
0.00980689
0.0100714
0.00921042
0.00869714
0.00841114
0.0081266
0.00786204
0.00763073
0.0074183
0.00721836
0.00702985
0.00685121
0.00668083
0.00651761
0.00636068
0.0062093
0.00606289
0.00592094
0.00578301
0.00564873
0.00551779
0.00538993
0.00526495
0.00514265
0.0050229
0.00490555
0.00479048
0.0046776
0.00456685
0.00445815
0.00435145
0.00424667
0.00414374
0.00404262
0.00394323
0.0038456
0.00374966
0.00365529
0.00356253
0.00347135
0.00338166
0.00329343
0.00320669
0.00312138
0.00303742
0.00295484
0.0028736
0.00279367
0.002715
0.00263756
0.00256139
0.00248641
0.00241259
0.00233995
0.00226848
0.00219809
0.00212879
0.0020606
0.00199344
0.0019273
0.00186218
0.00179811
0.00173501
0.00167284
0.00161165
0.00155143
0.00149212
0.00143371
0.00137622
0.0013196
0.00126386
0.00120893
0.0011549
0.00110172
0.00104943
0.000997908
0.000947219
0.00089721
0.000848219
0.000799885
0.000752906
0.000706105
0.000661287
0.000616433
0.000573808
0.000530654
0.000490339
0.000448684
0.00041259
0.000374598
0.000344612
0.000309558
0.000294164
0.00027215
0.000306148
0.000315919
0.000531479
0.000222572
0.0218245
0.0107416
0.0100422
0.0101061
0.00923996
0.0087229
0.00842902
0.00813982
0.00787244
0.00763895
0.00742495
0.00722397
0.00703479
0.00685568
0.00668497
0.00652153
0.00636446
0.00621302
0.00606658
0.00592462
0.00578671
0.00565247
0.00552159
0.00539379
0.00526887
0.00514664
0.00502695
0.00490966
0.00479464
0.0046818
0.00457109
0.00446241
0.00435572
0.00425094
0.00414802
0.00404688
0.00394748
0.00384982
0.00375385
0.00365943
0.00356664
0.00347541
0.00338567
0.00329739
0.00321061
0.00312524
0.00304122
0.00295859
0.00287729
0.0027973
0.00271857
0.00264107
0.00256484
0.00248981
0.00241593
0.00234323
0.00227171
0.00220126
0.00213191
0.00206366
0.00199646
0.00193026
0.00186509
0.00180098
0.00173782
0.00167561
0.00161437
0.00155411
0.00149476
0.0014363
0.00137877
0.00132211
0.00126633
0.00121136
0.0011573
0.00110408
0.00105174
0.00100019
0.000949469
0.000899428
0.000850404
0.000802041
0.000755026
0.000708207
0.000663345
0.000618483
0.000575804
0.000532643
0.000492286
0.000450641
0.000414494
0.000376491
0.000346423
0.000311461
0.000295999
0.00027377
0.000305778
0.000310405
0.00051388
0.000208849
0.0218015
0.0111434
0.0101354
0.0101207
0.00926403
0.00874354
0.00844263
0.00814999
0.00788068
0.0076456
0.00743043
0.00722864
0.00703887
0.00685932
0.00668828
0.00652461
0.00636737
0.00621579
0.00606925
0.00592723
0.00578928
0.00565503
0.00552414
0.00539636
0.00527148
0.00514929
0.00502964
0.0049124
0.00479744
0.00468467
0.00457401
0.00446539
0.00435875
0.00425402
0.00415114
0.00405004
0.00395068
0.00385305
0.00375709
0.0036627
0.00356992
0.0034787
0.00338895
0.00330067
0.00321388
0.0031285
0.00304447
0.00296181
0.00288049
0.00280048
0.00272172
0.0026442
0.00256795
0.00249289
0.00241897
0.00234624
0.00227469
0.0022042
0.00213482
0.00206653
0.00199929
0.00193306
0.00186786
0.00180371
0.00174052
0.00167827
0.001617
0.0015567
0.00149732
0.00143882
0.00138126
0.00132457
0.00126875
0.00121375
0.00115966
0.0011064
0.00105404
0.00100246
0.000951702
0.000901635
0.00085258
0.000804194
0.00075714
0.00071031
0.000665401
0.000620531
0.000577791
0.000534629
0.000494215
0.000452591
0.000416357
0.000378358
0.00034817
0.000313297
0.000297607
0.000275127
0.000305104
0.000305416
0.000498161
0.000193806
0.0211864
0.0113036
0.0101992
0.0101313
0.00928418
0.00876088
0.00845396
0.00815865
0.00788793
0.00765162
0.00743549
0.00723303
0.00704274
0.00686278
0.00669143
0.0065275
0.00637005
0.0062183
0.00607162
0.00592949
0.00579146
0.00565713
0.00552619
0.00539838
0.00527347
0.00515128
0.00503163
0.00491441
0.00479947
0.00468673
0.0045761
0.00446753
0.00436093
0.00425624
0.0041534
0.00405235
0.00395305
0.00385544
0.00375952
0.00366518
0.00357243
0.00348123
0.00339152
0.00330326
0.0032165
0.00313113
0.00304711
0.00296446
0.00288316
0.00280314
0.00272438
0.00264687
0.00257062
0.00249554
0.00242162
0.00234889
0.00227732
0.00220682
0.00213742
0.00206912
0.00200186
0.00193561
0.00187039
0.00180622
0.00174301
0.00168074
0.00161944
0.00155912
0.00149972
0.0014412
0.00138362
0.0013269
0.00127106
0.00121603
0.00116192
0.00110864
0.00105625
0.00100464
0.000953864
0.000903777
0.000854698
0.000806294
0.000759206
0.000712369
0.000667416
0.000622537
0.000579741
0.000536579
0.000496105
0.000454509
0.000418169
0.000380174
0.000349852
0.000315038
0.000298967
0.000276165
0.000304095
0.000300563
0.000482567
0.000177101
0.0205097
0.0114635
0.010271
0.0101419
0.00930301
0.0087773
0.00846468
0.00816691
0.00789491
0.00765745
0.00744043
0.00723734
0.00704657
0.00686622
0.00669455
0.00653036
0.00637268
0.00622074
0.00607389
0.00593162
0.00579347
0.00565904
0.00552802
0.00540014
0.00527518
0.00515293
0.00503326
0.00491602
0.00480107
0.00468832
0.0045777
0.00446914
0.00436255
0.00425789
0.00415507
0.00405405
0.00395479
0.00385721
0.00376131
0.00366703
0.0035743
0.00348313
0.00339346
0.00330525
0.0032185
0.00313317
0.00304918
0.00296655
0.00288528
0.00280527
0.00272654
0.00264906
0.00257281
0.00249774
0.00242383
0.00235111
0.00227955
0.00220904
0.00213965
0.00207135
0.0020041
0.00193784
0.00187261
0.00180844
0.00174522
0.00168294
0.00162164
0.00156131
0.00150189
0.00144336
0.00138577
0.00132904
0.00127318
0.00121814
0.00116402
0.00111072
0.00105832
0.00100669
0.000955894
0.000905796
0.000856698
0.000808284
0.000761166
0.000714332
0.000669339
0.000624459
0.000581612
0.000538458
0.000497923
0.000456373
0.00041992
0.000381947
0.000351492
0.00031675
0.000300206
0.000277016
0.000302903
0.000295805
0.000466344
0.000158534
0.0199081
0.0116331
0.0103431
0.010152
0.00932163
0.0087935
0.0084752
0.00817501
0.00790175
0.00766316
0.00744528
0.00724159
0.00705036
0.00686964
0.00669766
0.00653321
0.00637531
0.00622317
0.00607615
0.00593373
0.00579544
0.00566089
0.00552977
0.0054018
0.00527676
0.00515445
0.00503473
0.00491743
0.00480245
0.00468967
0.00457903
0.00447046
0.00436387
0.0042592
0.00415638
0.00405537
0.00395612
0.00385856
0.00376267
0.00366842
0.00357572
0.00348456
0.00339493
0.00330675
0.00322002
0.00313471
0.00305077
0.00296817
0.00288692
0.00280694
0.00272823
0.00265078
0.00257454
0.00249949
0.00242562
0.00235292
0.00228136
0.00221088
0.0021415
0.00207322
0.00200597
0.00193972
0.00187451
0.00181034
0.00174712
0.00168485
0.00162355
0.00156322
0.0015038
0.00144527
0.00138768
0.00133095
0.00127508
0.00122004
0.00116591
0.00111261
0.00106019
0.00100856
0.000957753
0.00090765
0.000858541
0.000810124
0.000762984
0.000716158
0.000671128
0.000626252
0.00058336
0.000540217
0.000499628
0.000458129
0.00042156
0.000383604
0.000353012
0.000318336
0.00030123
0.000277537
0.000301349
0.000290631
0.000448322
0.000138215
0.0193582
0.0117865
0.0104096
0.0101615
0.00934021
0.00880956
0.00848559
0.00818303
0.0079085
0.00766879
0.00745008
0.0072458
0.00705413
0.00687305
0.00670077
0.00653606
0.00637795
0.00622561
0.00607843
0.00593585
0.00579742
0.00566275
0.00553151
0.00540344
0.00527831
0.00515593
0.00503613
0.00491878
0.00480374
0.00469093
0.00458025
0.00447164
0.00436502
0.00426033
0.00415751
0.00405648
0.00395723
0.00385967
0.00376378
0.00366954
0.00357684
0.00348569
0.00339608
0.00330793
0.0032212
0.00313591
0.00305201
0.00296943
0.00288818
0.00280823
0.00272955
0.00265213
0.00257591
0.00250088
0.00242704
0.00235436
0.00228281
0.00221235
0.00214301
0.00207473
0.0020075
0.00194127
0.00187608
0.00181192
0.00174872
0.00168645
0.00162517
0.00156485
0.00150544
0.00144691
0.00138933
0.0013326
0.00127674
0.0012217
0.00116757
0.00111427
0.00106186
0.00101022
0.000959415
0.000909313
0.000860198
0.000811784
0.000764627
0.000717816
0.000672754
0.000627891
0.000584954
0.000541828
0.000501185
0.000459749
0.000423058
0.000385132
0.000354395
0.000319802
0.000302108
0.000277825
0.000299456
0.000284909
0.000428404
0.000116249
0.0188391
0.0119174
0.0104705
0.0101705
0.00935865
0.00882548
0.00849594
0.00819105
0.00791525
0.00767441
0.00745487
0.00725001
0.0070579
0.00687646
0.00670389
0.00653894
0.00638061
0.00622809
0.00608073
0.005938
0.00579943
0.00566463
0.00553328
0.00540511
0.00527989
0.00515742
0.00503754
0.00492012
0.00480502
0.00469215
0.00458143
0.00447278
0.00436612
0.0042614
0.00415854
0.00405749
0.00395822
0.00386065
0.00376475
0.00367049
0.0035778
0.00348665
0.00339703
0.00330889
0.00322217
0.00313687
0.00305299
0.00297042
0.00288919
0.00280925
0.0027306
0.00265318
0.00257698
0.00250198
0.00242816
0.0023555
0.00228396
0.00221353
0.00214421
0.00207595
0.00200873
0.00194253
0.00187735
0.0018132
0.00175002
0.00168778
0.00162651
0.0015662
0.0015068
0.0014483
0.00139072
0.00133401
0.00127815
0.00122313
0.00116901
0.00111571
0.0010633
0.00101167
0.00096087
0.000910775
0.00086166
0.000813256
0.000766088
0.000719296
0.000674207
0.000629358
0.000586379
0.000543276
0.000502585
0.000461207
0.000424394
0.000386485
0.000355588
0.000321058
0.000302754
0.000277762
0.000297021
0.00027814
0.000406021
9.29867e-05
0.0183462
0.0120277
0.0105264
0.0101788
0.00937678
0.00884123
0.00850626
0.0081991
0.00792202
0.00768006
0.00745968
0.00725424
0.00706168
0.0068799
0.00670704
0.00654184
0.00638329
0.00623059
0.00608306
0.00594018
0.00580148
0.00566655
0.00553509
0.00540681
0.00528149
0.00515893
0.00503898
0.00492148
0.00480632
0.00469339
0.00458261
0.00447391
0.00436721
0.00426245
0.00415955
0.00405847
0.00395917
0.00386157
0.00376565
0.00367137
0.00357866
0.0034875
0.00339787
0.00330972
0.003223
0.0031377
0.00305382
0.00297126
0.00289003
0.0028101
0.00273146
0.00265405
0.00257785
0.00250286
0.00242907
0.00235641
0.00228488
0.00221448
0.00214518
0.00207692
0.00200971
0.00194354
0.00187839
0.00181424
0.00175108
0.00168886
0.00162761
0.00156731
0.00150793
0.00144944
0.00139188
0.00133517
0.00127933
0.00122432
0.00117021
0.00111693
0.00106453
0.00101291
0.000962116
0.000912033
0.000862922
0.000814533
0.000767356
0.000720588
0.000675477
0.000630647
0.00058763
0.000544554
0.000503814
0.000462502
0.000425568
0.000387683
0.000356613
0.000322151
0.000303253
0.000277496
0.000294179
0.000270406
0.000381716
6.88204e-05
0.0178791
0.0121193
0.0105772
0.0101862
0.00939446
0.00885676
0.00851654
0.00820719
0.00792884
0.00768575
0.00746453
0.00725851
0.00706551
0.00688336
0.00671021
0.00654477
0.00638601
0.00623312
0.00608543
0.00594239
0.00580355
0.0056685
0.00553692
0.00540854
0.00528312
0.00516048
0.00504044
0.00492287
0.00480764
0.00469465
0.00458381
0.00447506
0.00436831
0.0042635
0.00416056
0.00405945
0.00396011
0.00386248
0.00376653
0.00367223
0.00357949
0.00348831
0.00339867
0.0033105
0.00322377
0.00313846
0.00305457
0.002972
0.00289077
0.00281083
0.00273219
0.00265478
0.00257858
0.00250361
0.00242982
0.00235716
0.00228564
0.00221526
0.00214597
0.00207771
0.00201051
0.00194437
0.00187923
0.00181509
0.00175194
0.00168975
0.0016285
0.00156821
0.00150885
0.00145038
0.00139282
0.00133613
0.00128031
0.00122532
0.00117122
0.00111795
0.00106556
0.00101395
0.000963168
0.000913098
0.000863997
0.000815623
0.000768443
0.0007217
0.000676568
0.000631758
0.000588708
0.000545658
0.000504873
0.000463623
0.000426569
0.000388693
0.000357433
0.000323006
0.000303493
0.000276885
0.00029082
0.00026141
0.000355464
4.4224e-05
0.0174368
0.0121933
0.0106228
0.0101926
0.00941152
0.00887199
0.00852674
0.00821531
0.00793571
0.00769148
0.00746943
0.00726282
0.00706937
0.00688687
0.00671343
0.00654773
0.00638876
0.00623568
0.00608782
0.00594464
0.00580565
0.00567048
0.00553878
0.00541029
0.00528478
0.00516205
0.00504193
0.00492429
0.00480899
0.00469593
0.00458503
0.00447623
0.00436943
0.00426457
0.00416159
0.00406043
0.00396106
0.00386339
0.00376741
0.00367308
0.00358032
0.00348911
0.00339944
0.00331126
0.00322451
0.00313918
0.00305527
0.0029727
0.00289145
0.00281151
0.00273286
0.00265545
0.00257924
0.00250426
0.00243048
0.00235782
0.0022863
0.00221592
0.00214664
0.00207838
0.00201119
0.00194506
0.00187993
0.00181578
0.00175265
0.00169047
0.00162924
0.00156895
0.00150961
0.00145115
0.0013936
0.00133692
0.00128112
0.00122614
0.00117204
0.00111879
0.00106641
0.00101481
0.00096404
0.000913986
0.000864895
0.000816537
0.000769353
0.000722637
0.000677486
0.0006327
0.000589618
0.000546594
0.000505765
0.000464579
0.000427408
0.000389546
0.000358089
0.00032369
0.000303569
0.000276082
0.000287132
0.000251441
0.000328227
1.96935e-05
0.0170179
0.0122506
0.0106634
0.0101977
0.0094278
0.00888684
0.00853681
0.00822341
0.0079426
0.00769726
0.00747439
0.00726719
0.00707329
0.00689043
0.00671669
0.00655074
0.00639155
0.00623828
0.00609025
0.00594691
0.00580779
0.00567249
0.00554067
0.00541208
0.00528647
0.00516365
0.00504345
0.00492573
0.00481036
0.00469724
0.00458628
0.00447742
0.00437057
0.00426566
0.00416264
0.00406144
0.00396202
0.00386432
0.0037683
0.00367394
0.00358115
0.00348992
0.00340022
0.00331201
0.00322524
0.00313989
0.00305596
0.00297337
0.00289211
0.00281215
0.00273349
0.00265607
0.00257986
0.00250487
0.00243108
0.00235842
0.00228689
0.00221651
0.00214723
0.00207897
0.00201178
0.00194565
0.00188053
0.00181638
0.00175325
0.00169109
0.00162986
0.00156957
0.00151024
0.0014518
0.00139425
0.00133757
0.00128179
0.00122682
0.00117273
0.00111949
0.00106712
0.00101553
0.000964761
0.000914726
0.000865646
0.0008173
0.000770113
0.000723422
0.000678253
0.000633488
0.000590373
0.000547372
0.000506501
0.000465372
0.000428084
0.000390216
0.000358549
0.000324137
0.000303368
0.00027494
0.000282994
0.000240405
0.000300332
-4.35305e-06
0.0166212
0.0122924
0.0106988
0.0102014
0.00944318
0.00890123
0.00854668
0.00823145
0.00794948
0.00770306
0.00747938
0.00727161
0.00707726
0.00689403
0.00671999
0.00655379
0.00639438
0.00624092
0.00609272
0.00594922
0.00580996
0.00567453
0.0055426
0.00541389
0.00528818
0.00516527
0.00504499
0.00492719
0.00481175
0.00469857
0.00458755
0.00447863
0.00437173
0.00426677
0.0041637
0.00406246
0.003963
0.00386527
0.00376921
0.00367481
0.003582
0.00349073
0.00340101
0.00331277
0.00322598
0.00314061
0.00305666
0.00297405
0.00289277
0.00281279
0.00273412
0.00265668
0.00258046
0.00250546
0.00243165
0.00235899
0.00228745
0.00221706
0.00214777
0.00207952
0.00201232
0.00194619
0.00188106
0.00181692
0.00175378
0.00169163
0.0016304
0.00157011
0.00151078
0.00145235
0.0013948
0.00133813
0.00128235
0.00122739
0.00117331
0.00112007
0.00106771
0.00101612
0.00096536
0.000915343
0.000866269
0.00081793
0.000770738
0.000724074
0.000678888
0.00063414
0.000590991
0.00054801
0.000507098
0.000466026
0.00042862
0.000390748
0.000358865
0.00032443
0.000303008
0.000273629
0.000278595
0.000228787
0.000272835
-2.74707e-05
0.0162455
0.0123198
0.0107293
0.0102038
0.00945753
0.00891508
0.00855631
0.0082394
0.00795634
0.00770887
0.0074844
0.00727606
0.00708126
0.00689767
0.00672334
0.00655688
0.00639726
0.0062436
0.00609522
0.00595157
0.00581216
0.0056766
0.00554455
0.00541574
0.00528993
0.00516692
0.00504655
0.00492868
0.00481317
0.00469992
0.00458884
0.00447987
0.00437291
0.0042679
0.00416479
0.0040635
0.003964
0.00386623
0.00377014
0.0036757
0.00358285
0.00349156
0.00340181
0.00331354
0.00322673
0.00314133
0.00305736
0.00297472
0.00289343
0.00281344
0.00273474
0.00265729
0.00258105
0.00250604
0.00243222
0.00235954
0.002288
0.00221759
0.00214829
0.00208003
0.00201283
0.00194669
0.00188156
0.00181741
0.00175427
0.00169211
0.00163089
0.0015706
0.00151126
0.00145284
0.00139529
0.00133861
0.00128283
0.00122789
0.00117381
0.00112057
0.00106821
0.00101663
0.000965871
0.000915863
0.000866794
0.000818462
0.000771263
0.000724624
0.000679418
0.000634676
0.000591493
0.000548531
0.00050758
0.000466549
0.000429017
0.000391125
0.000359013
0.000324512
0.000302385
0.000272006
0.000273852
0.000216645
0.000246031
-4.93812e-05
0.0158897
0.0123339
0.0107549
0.0102046
0.00947075
0.00892833
0.00856565
0.00824722
0.00796313
0.00771466
0.00748943
0.00728054
0.0070853
0.00690136
0.00672672
0.00656002
0.00640017
0.00624632
0.00609777
0.00595395
0.0058144
0.0056787
0.00554653
0.00541761
0.00529169
0.0051686
0.00504814
0.00493019
0.00481461
0.00470129
0.00459015
0.00448112
0.00437411
0.00426905
0.00416589
0.00406456
0.00396502
0.0038672
0.00377108
0.00367661
0.00358373
0.0034924
0.00340262
0.00331433
0.00322749
0.00314207
0.00305807
0.00297541
0.0028941
0.00281408
0.00273537
0.0026579
0.00258165
0.00250662
0.00243278
0.00236009
0.00228854
0.00221812
0.00214881
0.00208054
0.00201332
0.00194718
0.00188204
0.00181789
0.00175474
0.00169257
0.00163135
0.00157105
0.00151171
0.00145328
0.00139574
0.00133906
0.00128327
0.00122833
0.00117425
0.00112101
0.00106865
0.00101707
0.000966315
0.000916308
0.000867239
0.000818919
0.000771709
0.000725086
0.000679858
0.000635123
0.000591904
0.000548959
0.000507967
0.000466965
0.000429311
0.000391405
0.000359057
0.000324474
0.000301634
0.000270253
0.00026897
0.000204552
0.000220773
-6.97558e-05
0.0155528
0.0123359
0.0107758
0.010204
0.00948277
0.00894093
0.00857465
0.00825486
0.00796984
0.00772041
0.00749445
0.00728503
0.00708937
0.00690507
0.00673015
0.00656319
0.00640312
0.00624907
0.00610035
0.00595637
0.00581667
0.00568084
0.00554854
0.00541951
0.00529349
0.0051703
0.00504976
0.00493172
0.00481607
0.00470268
0.00459148
0.00448239
0.00437532
0.00427022
0.004167
0.00406563
0.00396605
0.00386819
0.00377203
0.00367752
0.00358461
0.00349326
0.00340344
0.00331512
0.00322826
0.00314281
0.00305879
0.00297611
0.00289477
0.00281474
0.00273601
0.00265852
0.00258225
0.00250721
0.00243335
0.00236065
0.00228908
0.00221865
0.00214932
0.00208104
0.00201382
0.00194766
0.00188251
0.00181835
0.0017552
0.00169302
0.00163179
0.00157149
0.00151214
0.00145371
0.00139616
0.00133947
0.00128369
0.00122874
0.00117466
0.00112141
0.00106905
0.00101747
0.000966714
0.000916707
0.000867636
0.000819325
0.000772103
0.000725487
0.000680233
0.000635506
0.000592249
0.000549309
0.000508272
0.000467288
0.000429506
0.000391569
0.000358969
0.000324265
0.000300655
0.000268227
0.000263871
0.000192648
0.000197172
-8.84801e-05
0.0152338
0.0123267
0.0107921
0.0102018
0.00949351
0.00895282
0.00858328
0.00826229
0.00797644
0.0077261
0.00749945
0.00728952
0.00709344
0.00690881
0.00673359
0.00656639
0.0064061
0.00625186
0.00610296
0.00595882
0.00581897
0.00568301
0.00555059
0.00542144
0.00529532
0.00517203
0.0050514
0.00493328
0.00481755
0.00470409
0.00459283
0.00448368
0.00437655
0.0042714
0.00416814
0.00406671
0.00396709
0.00386919
0.00377299
0.00367845
0.0035855
0.00349412
0.00340428
0.00331593
0.00322904
0.00314357
0.00305952
0.00297682
0.00289546
0.00281541
0.00273665
0.00265914
0.00258286
0.0025078
0.00243393
0.00236121
0.00228963
0.00221918
0.00214984
0.00208155
0.00201431
0.00194814
0.00188299
0.00181882
0.00175565
0.00169347
0.00163223
0.00157192
0.00151256
0.00145412
0.00139656
0.00133988
0.00128408
0.00122913
0.00117504
0.00112179
0.00106942
0.00101784
0.000967081
0.000917073
0.000867996
0.000819688
0.000772454
0.000725842
0.00068056
0.00063584
0.000592544
0.000549602
0.000508517
0.00046755
0.000429644
0.000391673
0.000358814
0.00032398
0.000299597
0.000266099
0.000258749
0.000181501
0.000175782
-0.000105353
0.0149315
0.0123074
0.010804
0.0101981
0.00950292
0.00896397
0.00859151
0.00826949
0.00798289
0.00773171
0.00750441
0.00729399
0.00709752
0.00691255
0.00673706
0.00656961
0.00640911
0.00625468
0.0061056
0.0059613
0.00582131
0.0056852
0.00555266
0.0054234
0.00529717
0.00517378
0.00505306
0.00493486
0.00481905
0.00470553
0.0045942
0.00448498
0.0043778
0.00427259
0.00416928
0.00406781
0.00396814
0.00387021
0.00377397
0.00367939
0.00358641
0.00349499
0.00340512
0.00331674
0.00322982
0.00314433
0.00306025
0.00297753
0.00289615
0.00281608
0.0027373
0.00265978
0.00258348
0.0025084
0.00243451
0.00236178
0.00229018
0.00221972
0.00215036
0.00208206
0.00201481
0.00194863
0.00188346
0.00181928
0.00175611
0.00169391
0.00163266
0.00157235
0.00151298
0.00145453
0.00139696
0.00134027
0.00128447
0.00122951
0.00117542
0.00112216
0.00106978
0.0010182
0.000967432
0.000917422
0.000868338
0.000820029
0.000772781
0.000726172
0.000680859
0.000636138
0.000592803
0.000549854
0.000508715
0.000467756
0.000429719
0.00039169
0.000358554
0.000323566
0.000298374
0.000263731
0.000253522
0.000171157
0.000156491
-0.000120372
0.0146452
0.0122789
0.0108115
0.0101929
0.00951097
0.00897434
0.00859931
0.00827642
0.00798919
0.00773722
0.00750932
0.00729843
0.00710158
0.0069163
0.00674054
0.00657285
0.00641214
0.00625752
0.00610827
0.00596381
0.00582367
0.00568743
0.00555476
0.00542538
0.00529904
0.00517556
0.00505475
0.00493646
0.00482058
0.00470698
0.00459558
0.00448631
0.00437907
0.0042738
0.00417044
0.00406893
0.00396921
0.00387124
0.00377496
0.00368034
0.00358733
0.00349588
0.00340597
0.00331756
0.00323062
0.0031451
0.003061
0.00297825
0.00289685
0.00281676
0.00273796
0.00266042
0.0025841
0.002509
0.0024351
0.00236235
0.00229074
0.00222026
0.00215089
0.00208257
0.00201532
0.00194912
0.00188394
0.00181975
0.00175656
0.00169435
0.0016331
0.00157277
0.0015134
0.00145494
0.00139736
0.00134066
0.00128485
0.00122989
0.00117579
0.00112253
0.00107014
0.00101854
0.00096777
0.000917758
0.000868664
0.000820352
0.000773087
0.000726481
0.000681137
0.00063641
0.000593036
0.00055008
0.000508881
0.00046793
0.00042977
0.000391672
0.000358249
0.000323112
0.000297154
0.000261349
0.000248354
0.000161927
0.000139607
-0.000133389
0.0143738
0.0122421
0.0108149
0.0101862
0.00951761
0.00898389
0.00860665
0.00828306
0.00799531
0.00774263
0.00751415
0.00730284
0.00710563
0.00692004
0.00674402
0.0065761
0.00641519
0.00626037
0.00611095
0.00596634
0.00582605
0.00568968
0.00555688
0.00542739
0.00530094
0.00517736
0.00505645
0.00493808
0.00482212
0.00470845
0.00459699
0.00448765
0.00438035
0.00427503
0.00417162
0.00407005
0.00397029
0.00387228
0.00377596
0.0036813
0.00358825
0.00349677
0.00340683
0.0033184
0.00323142
0.00314588
0.00306175
0.00297898
0.00289756
0.00281744
0.00273862
0.00266106
0.00258473
0.00250961
0.00243569
0.00236292
0.0022913
0.0022208
0.00215142
0.00208309
0.00201582
0.00194961
0.00188442
0.00182022
0.00175702
0.0016948
0.00163354
0.0015732
0.00151382
0.00145535
0.00139777
0.00134106
0.00128524
0.00123027
0.00117616
0.00112289
0.00107049
0.00101889
0.000968105
0.000918089
0.000868986
0.000820669
0.000773388
0.00072678
0.000681405
0.000636668
0.000593252
0.000550285
0.00050902
0.000468066
0.000429781
0.000391591
0.000357857
0.00032255
0.000295849
0.000258876
0.000243165
0.000153618
0.000124906
-0.000144429
0.0141165
0.0121979
0.0108143
0.010178
0.00952282
0.00899259
0.00861351
0.00828939
0.00800123
0.00774791
0.00751891
0.00730719
0.00710964
0.00692376
0.00674749
0.00657935
0.00641824
0.00626325
0.00611366
0.00596889
0.00582845
0.00569195
0.00555903
0.00542941
0.00530286
0.00517918
0.00505818
0.00493973
0.00482368
0.00470994
0.00459841
0.004489
0.00438165
0.00427627
0.00417281
0.00407119
0.00397139
0.00387333
0.00377697
0.00368227
0.00358919
0.00349767
0.0034077
0.00331924
0.00323223
0.00314666
0.00306251
0.00297971
0.00289827
0.00281813
0.00273929
0.00266171
0.00258536
0.00251022
0.00243628
0.0023635
0.00229186
0.00222135
0.00215195
0.00208361
0.00201633
0.0019501
0.0018849
0.00182069
0.00175748
0.00169525
0.00163398
0.00157363
0.00151424
0.00145576
0.00139817
0.00134145
0.00128562
0.00123064
0.00117653
0.00112325
0.00107084
0.00101922
0.000968436
0.000918415
0.000869301
0.000820979
0.000773679
0.000727069
0.000681663
0.000636913
0.000593456
0.000550478
0.000509144
0.000468186
0.000429786
0.000391497
0.000357437
0.00032195
0.000294579
0.000256519
0.000238127
0.000146353
0.000112542
-0.000153359
0.0138725
0.0121471
0.0108098
0.0101683
0.00952659
0.00900042
0.00861987
0.00829539
0.00800693
0.00775304
0.00752357
0.00731149
0.00711362
0.00692746
0.00675095
0.0065826
0.00642129
0.00626612
0.00611637
0.00597145
0.00583087
0.00569423
0.00556119
0.00543146
0.0053048
0.00518102
0.00505993
0.00494139
0.00482526
0.00471145
0.00459985
0.00449038
0.00438296
0.00427752
0.00417401
0.00407235
0.00397249
0.00387439
0.00377799
0.00368325
0.00359013
0.00349858
0.00340858
0.00332008
0.00323305
0.00314745
0.00306327
0.00298045
0.00289898
0.00281882
0.00273997
0.00266236
0.00258599
0.00251084
0.00243688
0.00236408
0.00229243
0.0022219
0.00215249
0.00208414
0.00201684
0.0019506
0.00188539
0.00182117
0.00175795
0.00169571
0.00163442
0.00157407
0.00151466
0.00145617
0.00139857
0.00134184
0.00128601
0.00123102
0.00117689
0.00112361
0.00107118
0.00101956
0.000968767
0.000918741
0.000869618
0.000821288
0.00077397
0.000727355
0.000681917
0.000637152
0.000593652
0.000550659
0.000509251
0.000468277
0.00042976
0.000391359
0.000356949
0.000321249
0.000293221
0.000254146
0.000233215
0.000139858
0.00010223
-0.00016021
0.013641
0.0120903
0.0108016
0.0101572
0.00952891
0.00900735
0.00862571
0.00830104
0.0080124
0.00775803
0.00752813
0.00731571
0.00711755
0.00693114
0.0067544
0.00658584
0.00642435
0.006269
0.00611909
0.00597402
0.0058333
0.00569653
0.00556336
0.00543352
0.00530675
0.00518287
0.00506169
0.00494306
0.00482686
0.00471297
0.0046013
0.00449176
0.00438428
0.00427879
0.00417522
0.00407351
0.00397361
0.00387546
0.00377902
0.00368424
0.00359108
0.0034995
0.00340947
0.00332094
0.00323388
0.00314825
0.00306404
0.0029812
0.0028997
0.00281952
0.00274064
0.00266302
0.00258663
0.00251146
0.00243748
0.00236467
0.002293
0.00222246
0.00215303
0.00208466
0.00201735
0.0019511
0.00188587
0.00182165
0.00175841
0.00169616
0.00163486
0.0015745
0.00151508
0.00145658
0.00139897
0.00134224
0.00128639
0.0012314
0.00117726
0.00112396
0.00107153
0.0010199
0.000969096
0.000919063
0.000869929
0.000821592
0.000774255
0.000727634
0.000682166
0.000637384
0.000593841
0.000550834
0.000509351
0.000468357
0.00042973
0.000391222
0.000356455
0.000320517
0.000291872
0.000251894
0.000228587
0.000134184
9.40439e-05
-0.000164888
0.0134211
0.0120285
0.0107899
0.0101446
0.00952976
0.00901336
0.00863101
0.00830633
0.00801763
0.00776285
0.00753258
0.00731986
0.00712143
0.00693477
0.00675782
0.00658907
0.00642739
0.00627188
0.00612181
0.00597659
0.00583574
0.00569884
0.00556555
0.00543559
0.00530872
0.00518474
0.00506346
0.00494475
0.00482846
0.0047145
0.00460276
0.00449316
0.00438562
0.00428007
0.00417645
0.00407468
0.00397473
0.00387654
0.00378006
0.00368524
0.00359205
0.00350043
0.00341036
0.0033218
0.00323471
0.00314905
0.00306482
0.00298195
0.00290043
0.00282023
0.00274132
0.00266368
0.00258727
0.00251208
0.00243809
0.00236526
0.00229357
0.00222301
0.00215357
0.00208519
0.00201787
0.0019516
0.00188636
0.00182212
0.00175888
0.00169661
0.00163531
0.00157494
0.00151551
0.00145699
0.00139938
0.00134263
0.00128678
0.00123177
0.00117763
0.00112432
0.00107188
0.00102024
0.000969426
0.000919387
0.000870242
0.000821897
0.000774541
0.000727912
0.000682412
0.000637612
0.000594024
0.000551
0.000509438
0.000468411
0.000429669
0.00039105
0.000355918
0.000319703
0.000290418
0.000249616
0.000224192
0.000129053
8.77405e-05
-0.000167469
0.0132122
0.0119621
0.0107747
0.0101306
0.00952916
0.00901842
0.00863575
0.00831122
0.0080226
0.00776749
0.0075369
0.00732392
0.00712524
0.00693836
0.00676121
0.00659228
0.00643043
0.00627476
0.00612453
0.00597917
0.00583818
0.00570115
0.00556774
0.00543767
0.0053107
0.00518661
0.00506524
0.00494644
0.00483008
0.00471604