/*--------------------------------*- C++ -*----------------------------------*\
| =========                 |                                                 |
| \\      /  F ield         | OpenFOAM: The Open Source CFD Toolbox           |
|  \\    /   O peration     | Version:  3.0.0                                 |
|   \\  /    A nd           | Web:      www.OpenFOAM.org                      |
|    \\/     M anipulation  |                                                 |
\*---------------------------------------------------------------------------*/
FoamFile
{
    version     2.0;
    format      ascii;
    class       surfaceScalarField;
    location    "275";
    object      phi;
}
// * * * * * * * * * * * * * * * * * * * * * * * * * * * * * * * * * * * * * //

dimensions      [0 3 -1 0 0 0 0];

internalField   nonuniform List<scalar> 
19800
(
0.00186452
0.000143079
0.00177876
8.57585e-05
0.00173881
3.99525e-05
0.00170774
3.10639e-05
0.00168049
2.72489e-05
0.00165625
2.4245e-05
0.00163365
2.2596e-05
0.00161209
2.15622e-05
0.00159145
2.06383e-05
0.0015717
1.97481e-05
0.00155283
1.88726e-05
0.00153483
1.79994e-05
0.0015177
1.71275e-05
0.00150145
1.62555e-05
0.00148606
1.53944e-05
0.0014715
1.45583e-05
0.00145774
1.37561e-05
0.00144475
1.29911e-05
0.00143248
1.22665e-05
0.0014209
1.15851e-05
0.00140995
1.09487e-05
0.00139959
1.03557e-05
0.00138979
9.80438e-06
0.0013805
9.29245e-06
0.00137168
8.81767e-06
0.0013633
8.37698e-06
0.00135533
7.9681e-06
0.00134775
7.58898e-06
0.00134051
7.23725e-06
0.0013336
6.90915e-06
0.001327
6.60263e-06
0.00132068
6.31627e-06
0.00131463
6.04842e-06
0.00130883
5.79859e-06
0.00130327
5.56477e-06
0.00129792
5.34553e-06
0.00129278
5.14034e-06
0.00128784
4.94708e-06
0.00128307
4.76548e-06
0.00127848
4.59523e-06
0.00127404
4.43482e-06
0.00126976
4.28315e-06
0.00126562
4.14006e-06
0.00126161
4.00509e-06
0.00125774
3.87704e-06
0.00125398
3.7557e-06
0.00125034
3.64066e-06
0.00124681
3.53159e-06
0.00124338
3.42831e-06
0.00124005
3.3297e-06
0.00123681
3.23607e-06
0.00123367
3.14707e-06
0.0012306
3.06191e-06
0.00122762
2.98033e-06
0.00122472
2.90277e-06
0.00122189
2.82866e-06
0.00121914
2.75764e-06
0.00121645
2.68968e-06
0.00121382
2.62471e-06
0.00121126
2.56231e-06
0.00120876
2.50247e-06
0.00120631
2.44506e-06
0.00120392
2.39002e-06
0.00120159
2.33701e-06
0.0011993
2.28629e-06
0.00119706
2.23744e-06
0.00119487
2.19036e-06
0.00119273
2.14476e-06
0.00119063
2.10109e-06
0.00118857
2.05881e-06
0.00118655
2.01835e-06
0.00118457
1.97886e-06
0.00118263
1.94116e-06
0.00118072
1.90436e-06
0.00117885
1.86899e-06
0.00117702
1.83459e-06
0.00117522
1.80162e-06
0.00117345
1.76992e-06
0.00117171
1.73917e-06
0.00117
1.70917e-06
0.00116832
1.68034e-06
0.00116667
1.65206e-06
0.00116504
1.62491e-06
0.00116344
1.59865e-06
0.00116187
1.57293e-06
0.00116032
1.54915e-06
0.00115879
1.52559e-06
0.00115729
1.50616e-06
0.00115581
1.48278e-06
0.00115434
1.46727e-06
0.0011529
1.4422e-06
0.00115146
1.43768e-06
0.00115004
1.42344e-06
0.0011486
1.42526e-06
0.00114722
1.39149e-06
0.00114574
1.46348e-06
0.00114387
1.8844e-06
0.00114
3.8179e-06
0.00113122
8.49956e-06
8.71664e-06
0.00201343
0.000170151
0.0019726
0.000126584
0.00193998
7.25794e-05
0.00191487
5.61708e-05
0.00189471
4.74054e-05
0.00187764
4.13186e-05
0.00186237
3.78705e-05
0.00184815
3.57788e-05
0.00183459
3.42008e-05
0.00182144
3.2896e-05
0.00180856
3.17509e-05
0.00179588
3.06795e-05
0.00178337
2.96347e-05
0.00177103
2.85985e-05
0.00175885
2.75704e-05
0.00174686
2.65521e-05
0.00173507
2.55445e-05
0.00172351
2.45498e-05
0.00171221
2.35736e-05
0.00170117
2.26221e-05
0.00169042
2.16999e-05
0.00167996
2.08088e-05
0.00166982
1.9951e-05
0.00165998
1.91278e-05
0.00165046
1.83402e-05
0.00164125
1.75877e-05
0.00163235
1.68706e-05
0.00162375
1.61881e-05
0.00161545
1.55392e-05
0.00160743
1.49223e-05
0.0015997
1.43364e-05
0.00159224
1.37802e-05
0.00158503
1.32526e-05
0.00157808
1.27535e-05
0.00157136
1.22799e-05
0.00156488
1.18311e-05
0.00155861
1.14064e-05
0.00155255
1.10029e-05
0.0015467
1.06207e-05
0.00154104
1.02592e-05
0.00153555
9.91609e-06
0.00153025
9.58983e-06
0.00152511
9.2804e-06
0.00152013
8.98679e-06
0.0015153
8.70709e-06
0.00151061
8.441e-06
0.00150606
8.1878e-06
0.00150165
7.94699e-06
0.00149736
7.71786e-06
0.00149319
7.49868e-06
0.00148914
7.29005e-06
0.00148519
7.09113e-06
0.00148135
6.90053e-06
0.00147762
6.71785e-06
0.00147397
6.54376e-06
0.00147043
6.37707e-06
0.00146697
6.21716e-06
0.00146359
6.06399e-06
0.0014603
5.91745e-06
0.00145709
5.77669e-06
0.00145395
5.64139e-06
0.00145088
5.51145e-06
0.00144788
5.38677e-06
0.00144495
5.26669e-06
0.00144209
5.15148e-06
0.00143929
5.04051e-06
0.00143654
4.9336e-06
0.00143386
4.83017e-06
0.00143123
4.73086e-06
0.00142865
4.63483e-06
0.00142613
4.54267e-06
0.00142365
4.45307e-06
0.00142123
4.36715e-06
0.00141885
4.28357e-06
0.00141651
4.20312e-06
0.00141422
4.12489e-06
0.00141197
4.04983e-06
0.00140977
3.97734e-06
0.0014076
3.90745e-06
0.00140547
3.83899e-06
0.00140338
3.77365e-06
0.00140132
3.70897e-06
0.0013993
3.64789e-06
0.00139731
3.58706e-06
0.00139535
3.52966e-06
0.00139343
3.47375e-06
0.00139153
3.42112e-06
0.00138966
3.3724e-06
0.00138783
3.32379e-06
0.00138601
3.27941e-06
0.00138422
3.23314e-06
0.00138245
3.20282e-06
0.0013807
3.17877e-06
0.00137896
3.16433e-06
0.00137722
3.13419e-06
0.00137547
3.19508e-06
0.00137365
3.71146e-06
0.00137175
5.66827e-06
0.00136887
1.11224e-05
1.28538e-05
0.00206687
0.000177228
0.00204681
0.000146637
0.00202485
9.4544e-05
0.00200568
7.53442e-05
0.00198966
6.34204e-05
0.00197607
5.49129e-05
0.00196412
4.98126e-05
0.0019533
4.66009e-05
0.00194324
4.42612e-05
0.00193369
4.24457e-05
0.00192448
4.09646e-05
0.00191548
3.96743e-05
0.00190663
3.84902e-05
0.00189786
3.73697e-05
0.00188914
3.62906e-05
0.00188045
3.52404e-05
0.00187178
3.42107e-05
0.00186314
3.31966e-05
0.00185451
3.21986e-05
0.00184591
3.12177e-05
0.00183736
3.02537e-05
0.00182886
2.93068e-05
0.00182043
2.8379e-05
0.00181209
2.74714e-05
0.00180385
2.65853e-05
0.00179571
2.5721e-05
0.0017877
2.48803e-05
0.00177983
2.40632e-05
0.0017721
2.32704e-05
0.00176452
2.25019e-05
0.00175709
2.1759e-05
0.00174983
2.10411e-05
0.00174274
2.03494e-05
0.00173581
1.96842e-05
0.00172904
1.90432e-05
0.00172245
1.84279e-05
0.00171602
1.78371e-05
0.00170975
1.72695e-05
0.00170364
1.67266e-05
0.0016977
1.62071e-05
0.0016919
1.57086e-05
0.00168626
1.52308e-05
0.00168077
1.47742e-05
0.00167542
1.4337e-05
0.00167021
1.39178e-05
0.00166513
1.35165e-05
0.00166019
1.31324e-05
0.00165537
1.27653e-05
0.00165067
1.24134e-05
0.0016461
1.20755e-05
0.00164163
1.17527e-05
0.00163728
1.14432e-05
0.00163304
1.11456e-05
0.0016289
1.08598e-05
0.00162485
1.05865e-05
0.00162091
1.03238e-05
0.00161705
1.00711e-05
0.00161329
9.82852e-06
0.00160961
9.59584e-06
0.00160601
9.37187e-06
0.0016025
9.15604e-06
0.00159906
8.94841e-06
0.0015957
8.74894e-06
0.00159241
8.55648e-06
0.00158919
8.37137e-06
0.00158604
8.19276e-06
0.00158295
8.02057e-06
0.00157993
7.85388e-06
0.00157697
7.69352e-06
0.00157406
7.53845e-06
0.00157121
7.38923e-06
0.00156842
7.24432e-06
0.00156569
7.10491e-06
0.001563
6.9695e-06
0.00156036
6.83889e-06
0.00155778
6.71195e-06
0.00155524
6.58994e-06
0.00155274
6.47177e-06
0.00155029
6.35789e-06
0.00154788
6.24645e-06
0.00154552
6.13995e-06
0.00154319
6.0346e-06
0.00154091
5.93502e-06
0.00153866
5.83583e-06
0.00153644
5.74233e-06
0.00153427
5.65091e-06
0.00153212
5.56479e-06
0.00153001
5.48281e-06
0.00152793
5.40487e-06
0.00152588
5.32748e-06
0.00152386
5.25746e-06
0.00152186
5.19816e-06
0.00151988
5.15855e-06
0.00151792
5.12122e-06
0.00151595
5.11111e-06
0.00151395
5.18012e-06
0.00151186
5.81686e-06
0.00150978
7.72088e-06
0.00150831
1.24403e-05
1.50226e-05
0.00210981
0.000175355
0.00210007
0.000156372
0.00208526
0.000109353
0.00207061
9.00013e-05
0.00205752
7.65071e-05
0.00204605
6.63867e-05
0.00203589
5.99692e-05
0.00202675
5.57392e-05
0.00201838
5.26349e-05
0.00201057
5.02551e-05
0.00200317
4.83611e-05
0.00199608
4.67716e-05
0.00198919
4.53759e-05
0.00198245
4.41097e-05
0.00197581
4.29328e-05
0.00196923
4.18207e-05
0.00196268
4.07574e-05
0.00195615
3.97312e-05
0.00194961
3.87352e-05
0.00194306
3.77649e-05
0.0019365
3.68164e-05
0.00192992
3.58872e-05
0.00192332
3.49766e-05
0.00191671
3.40822e-05
0.00191009
3.32032e-05
0.00190347
3.23392e-05
0.00189686
3.14906e-05
0.00189027
3.06569e-05
0.0018837
2.98384e-05
0.00187717
2.90348e-05
0.00187068
2.82475e-05
0.00186425
2.74764e-05
0.00185787
2.67233e-05
0.00185157
2.59887e-05
0.00184534
2.52725e-05
0.00183919
2.45749e-05
0.00183313
2.38949e-05
0.00182717
2.32357e-05
0.0018213
2.25979e-05
0.00181552
2.19788e-05
0.00180985
2.13783e-05
0.00180429
2.07977e-05
0.00179882
2.02373e-05
0.00179347
1.96952e-05
0.00178821
1.91709e-05
0.00178307
1.86646e-05
0.00177802
1.8177e-05
0.00177308
1.77075e-05
0.00176824
1.72533e-05
0.0017635
1.68151e-05
0.00175886
1.63942e-05
0.00175431
1.59875e-05
0.00174986
1.55945e-05
0.00174551
1.5216e-05
0.00174124
1.48521e-05
0.00173707
1.45004e-05
0.00173298
1.41608e-05
0.00172897
1.38339e-05
0.00172505
1.35189e-05
0.00172121
1.32147e-05
0.00171744
1.29205e-05
0.00171375
1.26369e-05
0.00171014
1.23637e-05
0.0017066
1.20993e-05
0.00170312
1.18443e-05
0.00169972
1.15977e-05
0.00169638
1.13595e-05
0.0016931
1.11285e-05
0.00168989
1.09058e-05
0.00168674
1.06902e-05
0.00168365
1.04822e-05
0.00168061
1.02801e-05
0.00167763
1.00851e-05
0.0016747
9.89567e-06
0.00167183
9.71258e-06
0.00166901
9.53462e-06
0.00166624
9.36313e-06
0.00166351
9.19669e-06
0.00166083
9.03639e-06
0.0016582
8.87934e-06
0.00165561
8.72896e-06
0.00165306
8.58032e-06
0.00165056
8.43956e-06
0.0016481
8.2994e-06
0.00164567
8.16723e-06
0.00164328
8.03771e-06
0.00164093
7.91565e-06
0.00163862
7.79755e-06
0.00163634
7.68786e-06
0.00163409
7.57461e-06
0.00163187
7.47837e-06
0.00162968
7.3875e-06
0.00162751
7.32674e-06
0.00162537
7.26397e-06
0.00162321
7.26785e-06
0.00162103
7.35671e-06
0.00161877
8.07621e-06
0.00161649
9.96787e-06
0.00161487
1.39123e-05
1.69629e-05
0.00214895
0.000168892
0.00214523
0.000160085
0.00213556
0.000119028
0.00212462
0.00010094
0.00211409
8.70399e-05
0.0021044
7.60692e-05
0.00209561
6.87616e-05
0.00208762
6.37351e-05
0.00208028
5.9971e-05
0.00207347
5.70629e-05
0.00206708
5.47509e-05
0.00206102
5.28342e-05
0.00205521
5.11852e-05
0.00204959
4.97259e-05
0.00204412
4.84042e-05
0.00203876
4.71856e-05
0.00203347
4.6047e-05
0.00202823
4.49714e-05
0.00202302
4.3946e-05
0.00201782
4.29624e-05
0.00201262
4.20141e-05
0.00200741
4.10956e-05
0.00200219
4.02026e-05
0.00199694
3.9331e-05
0.00199166
3.84785e-05
0.00198636
3.76428e-05
0.00198103
3.68219e-05
0.00197567
3.60142e-05
0.00197029
3.5219e-05
0.00196489
3.4435e-05
0.00195948
3.36624e-05
0.00195405
3.29006e-05
0.00194862
3.21507e-05
0.0019432
3.1413e-05
0.00193778
3.06879e-05
0.00193238
2.99751e-05
0.00192701
2.92728e-05
0.00192166
2.85857e-05
0.00191634
2.79142e-05
0.00191106
2.72544e-05
0.00190583
2.66093e-05
0.00190065
2.59805e-05
0.00189552
2.53666e-05
0.00189045
2.47667e-05
0.00188544
2.4182e-05
0.00188049
2.36128e-05
0.00187561
2.30595e-05
0.00187079
2.25216e-05
0.00186605
2.19977e-05
0.00186137
2.14898e-05
0.00185677
2.09976e-05
0.00185224
2.05178e-05
0.00184778
2.00523e-05
0.0018434
1.96017e-05
0.00183908
1.91652e-05
0.00183484
1.87407e-05
0.00183068
1.83294e-05
0.00182658
1.79316e-05
0.00182255
1.75462e-05
0.00181859
1.71721e-05
0.0018147
1.68094e-05
0.00181088
1.64582e-05
0.00180713
1.61185e-05
0.00180344
1.57886e-05
0.00179981
1.54693e-05
0.00179625
1.51597e-05
0.00179275
1.48598e-05
0.00178931
1.45682e-05
0.00178593
1.42862e-05
0.00178261
1.40127e-05
0.00177934
1.37479e-05
0.00177613
1.34903e-05
0.00177298
1.3241e-05
0.00176987
1.29987e-05
0.00176682
1.27638e-05
0.00176382
1.25354e-05
0.00176087
1.23145e-05
0.00175797
1.20999e-05
0.00175511
1.18929e-05
0.0017523
1.16898e-05
0.00174953
1.14948e-05
0.00174681
1.13023e-05
0.00174413
1.11193e-05
0.00174149
1.09376e-05
0.0017389
1.07655e-05
0.00173634
1.0597e-05
0.00173381
1.04375e-05
0.00173133
1.02824e-05
0.00172888
1.01386e-05
0.00172646
9.98976e-06
0.00172408
9.86399e-06
0.00172172
9.74244e-06
0.00171939
9.65611e-06
0.00171709
9.56745e-06
0.00171478
9.58321e-06
0.00171244
9.68988e-06
0.00171003
1.04871e-05
0.0017076
1.23766e-05
0.00170557
1.58739e-05
1.90318e-05
0.0021863
0.000160193
0.00218638
0.000159999
0.0021805
0.000124915
0.00217264
0.000108795
0.00216442
9.52675e-05
0.00215642
8.40655e-05
0.0021489
7.6285e-05
0.0021419
7.07258e-05
0.00213541
6.64637e-05
0.00212935
6.31211e-05
0.00212366
6.04402e-05
0.00211828
5.82154e-05
0.00211316
5.6313e-05
0.00210823
5.46474e-05
0.00210348
5.31597e-05
0.00209886
5.1809e-05
0.00209434
5.05666e-05
0.0020899
4.94113e-05
0.00208551
4.8327e-05
0.00208118
4.7302e-05
0.00207686
4.63274e-05
0.00207256
4.5395e-05
0.00206827
4.44985e-05
0.00206396
4.36325e-05
0.00205965
4.27931e-05
0.00205532
4.1976e-05
0.00205096
4.11784e-05
0.00204658
4.03977e-05
0.00204216
3.96317e-05
0.00203772
3.8878e-05
0.00203325
3.81358e-05
0.00202874
3.74038e-05
0.00202421
3.66819e-05
0.00201966
3.59697e-05
0.00201508
3.52671e-05
0.00201048
3.4574e-05
0.00200586
3.38883e-05
0.00200124
3.32122e-05
0.0019966
3.25474e-05
0.00199197
3.18898e-05
0.00198733
3.12427e-05
0.00198271
3.06074e-05
0.00197809
2.99815e-05
0.00197349
2.93652e-05
0.00196892
2.87611e-05
0.00196436
2.81689e-05
0.00195983
2.75874e-05
0.00195534
2.7017e-05
0.00195088
2.64586e-05
0.00194645
2.59137e-05
0.00194207
2.53809e-05
0.00193773
2.4858e-05
0.00193343
2.43482e-05
0.00192918
2.38515e-05
0.00192498
2.33661e-05
0.00192083
2.28914e-05
0.00191673
2.24298e-05
0.00191268
2.19805e-05
0.00190869
2.15424e-05
0.00190474
2.1115e-05
0.00190085
2.06992e-05
0.00189702
2.02947e-05
0.00189323
1.9901e-05
0.00188951
1.95172e-05
0.00188583
1.91446e-05
0.00188221
1.87819e-05
0.00187864
1.84291e-05
0.00187512
1.80849e-05
0.00187166
1.77511e-05
0.00186824
1.74263e-05
0.00186488
1.71107e-05
0.00186157
1.6803e-05
0.0018583
1.65044e-05
0.00185509
1.62134e-05
0.00185192
1.59306e-05
0.0018488
1.5655e-05
0.00184573
1.53878e-05
0.0018427
1.51277e-05
0.00183972
1.48761e-05
0.00183678
1.46291e-05
0.00183388
1.43912e-05
0.00183103
1.41565e-05
0.00182822
1.39324e-05
0.00182544
1.37101e-05
0.00182271
1.34988e-05
0.00182002
1.32918e-05
0.00181736
1.30955e-05
0.00181474
1.29036e-05
0.00181215
1.27259e-05
0.0018096
1.25417e-05
0.00180708
1.23861e-05
0.00180458
1.22333e-05
0.00180212
1.21213e-05
0.00179968
1.20069e-05
0.00179724
1.20249e-05
0.00179477
1.21542e-05
0.00179223
1.30166e-05
0.00178969
1.49034e-05
0.00178725
1.82126e-05
2.13426e-05
0.00222292
0.000150559
0.00222544
0.000157482
0.00222235
0.000128003
0.00221701
0.000114133
0.00221083
0.000101455
0.00220442
9.0475e-05
0.00219813
8.25748e-05
0.00219211
7.67385e-05
0.00218642
7.2157e-05
0.00218104
6.85009e-05
0.00217595
6.55304e-05
0.00217112
6.30478e-05
0.00216651
6.0921e-05
0.0021621
5.90628e-05
0.00215784
5.74119e-05
0.00215373
5.59242e-05
0.00214973
5.45677e-05
0.00214582
5.33185e-05
0.00214199
5.21583e-05
0.00213822
5.10732e-05
0.00213449
5.00523e-05
0.0021308
4.90859e-05
0.00212713
4.81661e-05
0.00212348
4.72866e-05
0.00211983
4.64418e-05
0.00211618
4.56266e-05
0.00211252
4.48372e-05
0.00210885
4.40702e-05
0.00210516
4.33224e-05
0.00210145
4.25909e-05
0.00209771
4.1874e-05
0.00209394
4.11696e-05
0.00209015
4.04767e-05
0.00208632
3.97943e-05
0.00208247
3.91214e-05
0.00207859
3.84578e-05
0.00207467
3.78017e-05
0.00207073
3.71526e-05
0.00206677
3.65129e-05
0.00206278
3.58792e-05
0.00205877
3.52527e-05
0.00205474
3.46347e-05
0.0020507
3.40235e-05
0.00204664
3.34183e-05
0.00204258
3.28227e-05
0.00203852
3.22357e-05
0.00203445
3.16544e-05
0.00203038
3.10815e-05
0.00202633
3.05182e-05
0.00202227
2.99641e-05
0.00201824
2.94186e-05
0.00201421
2.88807e-05
0.00201021
2.83532e-05
0.00200622
2.78359e-05
0.00200226
2.73267e-05
0.00199833
2.68262e-05
0.00199442
2.63375e-05
0.00199054
2.58581e-05
0.0019867
2.53877e-05
0.00198289
2.49271e-05
0.00197911
2.44769e-05
0.00197537
2.40363e-05
0.00197166
2.3605e-05
0.001968
2.31829e-05
0.00196437
2.27714e-05
0.00196078
2.23691e-05
0.00195724
2.19758e-05
0.00195373
2.1591e-05
0.00195027
2.12162e-05
0.00194684
2.08502e-05
0.00194346
2.04932e-05
0.00194012
2.0144e-05
0.00193682
1.9804e-05
0.00193356
1.94719e-05
0.00193034
1.91479e-05
0.00192717
1.88313e-05
0.00192403
1.85237e-05
0.00192093
1.82234e-05
0.00191788
1.79317e-05
0.00191486
1.76453e-05
0.00191189
1.73684e-05
0.00190895
1.70951e-05
0.00190605
1.68331e-05
0.00190318
1.65734e-05
0.00190036
1.63254e-05
0.00189756
1.60825e-05
0.00189481
1.58513e-05
0.00189209
1.56248e-05
0.0018894
1.5414e-05
0.00188674
1.51972e-05
0.00188412
1.50118e-05
0.00188152
1.483e-05
0.00187895
1.46935e-05
0.0018764
1.4555e-05
0.00187385
1.45736e-05
0.00187128
1.4719e-05
0.00186865
1.56516e-05
0.001866
1.7545e-05
0.00186325
2.09186e-05
2.38113e-05
0.00225942
0.000140708
0.00226345
0.000153448
0.0022624
0.000129048
0.00225908
0.000117458
0.00225465
0.000105886
0.00224969
9.54305e-05
0.00224459
8.76819e-05
0.00223954
8.17885e-05
0.00223464
7.70571e-05
0.00222992
7.32138e-05
0.00222541
7.0046e-05
0.00222108
6.73718e-05
0.00221694
6.50671e-05
0.00221295
6.30478e-05
0.00220911
6.12535e-05
0.00220539
5.96399e-05
0.00220179
5.81738e-05
0.00219828
5.68301e-05
0.00219485
5.55895e-05
0.00219148
5.44366e-05
0.00218818
5.33594e-05
0.00218491
5.23473e-05
0.00218169
5.13915e-05
0.00217849
5.04845e-05
0.00217531
4.96202e-05
0.00217215
4.87926e-05
0.00216899
4.79974e-05
0.00216583
4.72302e-05
0.00216266
4.64873e-05
0.00215949
4.57656e-05
0.0021563
4.50624e-05
0.00215309
4.43755e-05
0.00214987
4.37032e-05
0.00214662
4.30439e-05
0.00214334
4.23961e-05
0.00214004
4.17587e-05
0.00213671
4.11309e-05
0.00213335
4.05104e-05
0.00212997
3.98987e-05
0.00212655
3.92941e-05
0.00212311
3.86956e-05
0.00211964
3.81041e-05
0.00211615
3.7519e-05
0.00211263
3.69384e-05
0.00210908
3.63648e-05
0.00210552
3.57982e-05
0.00210194
3.52353e-05
0.00209834
3.46783e-05
0.00209473
3.4129e-05
0.00209111
3.35853e-05
0.00208748
3.30474e-05
0.00208385
3.25158e-05
0.00208021
3.19914e-05
0.00207657
3.14741e-05
0.00207294
3.09625e-05
0.0020693
3.04574e-05
0.00206568
2.99617e-05
0.00206207
2.94726e-05
0.00205846
2.899e-05
0.00205487
2.85156e-05
0.0020513
2.80497e-05
0.00204775
2.75907e-05
0.00204421
2.71393e-05
0.0020407
2.6696e-05
0.00203721
2.62616e-05
0.00203374
2.58346e-05
0.0020303
2.54155e-05
0.00202689
2.5004e-05
0.00202351
2.46015e-05
0.00202015
2.42066e-05
0.00201682
2.38198e-05
0.00201353
2.34403e-05
0.00201026
2.30695e-05
0.00200703
2.27059e-05
0.00200383
2.235e-05
0.00200066
2.20011e-05
0.00199752
2.16611e-05
0.00199441
2.13282e-05
0.00199134
2.10036e-05
0.0019883
2.06843e-05
0.0019853
2.03746e-05
0.00198232
2.00685e-05
0.00197938
1.97739e-05
0.00197647
1.94816e-05
0.0019736
1.92017e-05
0.00197075
1.89269e-05
0.00196794
1.86646e-05
0.00196516
1.8407e-05
0.00196241
1.81668e-05
0.00195968
1.79202e-05
0.00195699
1.77078e-05
0.00195432
1.7499e-05
0.00195167
1.73409e-05
0.00194904
1.71824e-05
0.00194642
1.71932e-05
0.00194378
1.73528e-05
0.00194108
1.83495e-05
0.00193835
2.02623e-05
0.00193539
2.38188e-05
2.64123e-05
0.00229611
0.00013103
0.00230104
0.00014852
0.00230146
0.000128629
0.00229971
0.000119206
0.00229675
0.000108846
0.00229309
9.90949e-05
0.00228908
9.16875e-05
0.00228496
8.59096e-05
0.00228084
8.11739e-05
0.0022768
7.72609e-05
0.00227285
7.39884e-05
0.00226903
7.11942e-05
0.00226533
6.87662e-05
0.00226175
6.6627e-05
0.00225829
6.47198e-05
0.00225492
6.3002e-05
0.00225166
6.14414e-05
0.00224847
6.00128e-05
0.00224537
5.86967e-05
0.00224233
5.74776e-05
0.00223934
5.63429e-05
0.00223641
5.52814e-05
0.00223352
5.42838e-05
0.00223066
5.33423e-05
0.00222783
5.24501e-05
0.00222502
5.16009e-05
0.00222223
5.07898e-05
0.00221945
5.00121e-05
0.00221667
4.92637e-05
0.00221389
4.8541e-05
0.00221112
4.7841e-05
0.00220833
4.71611e-05
0.00220553
4.64993e-05
0.00220272
4.58536e-05
0.0021999
4.52222e-05
0.00219705
4.46036e-05
0.00219419
4.39969e-05
0.0021913
4.33995e-05
0.00218839
4.28117e-05
0.00218545
4.22327e-05
0.00218248
4.16607e-05
0.00217949
4.10955e-05
0.00217647
4.05374e-05
0.00217343
3.99843e-05
0.00217035
3.94367e-05
0.00216726
3.88956e-05
0.00216413
3.83587e-05
0.00216099
3.78259e-05
0.00215782
3.72991e-05
0.00215462
3.67767e-05
0.00215141
3.62583e-05
0.00214818
3.57452e-05
0.00214494
3.52374e-05
0.00214168
3.47337e-05
0.00213841
3.42345e-05
0.00213512
3.37401e-05
0.00213183
3.32527e-05
0.00212854
3.27696e-05
0.00212523
3.22909e-05
0.00212193
3.18185e-05
0.00211863
3.13528e-05
0.00211533
3.08916e-05
0.00211203
3.04359e-05
0.00210874
2.99871e-05
0.00210546
2.95448e-05
0.00210218
2.91079e-05
0.00209892
2.86775e-05
0.00209567
2.82536e-05
0.00209244
2.78368e-05
0.00208922
2.7426e-05
0.00208601
2.70222e-05
0.00208283
2.66249e-05
0.00207967
2.62348e-05
0.00207652
2.58508e-05
0.0020734
2.54737e-05
0.00207029
2.51029e-05
0.00206722
2.47401e-05
0.00206416
2.43838e-05
0.00206113
2.4035e-05
0.00205812
2.36911e-05
0.00205514
2.33564e-05
0.00205218
2.3025e-05
0.00204925
2.27046e-05
0.00204635
2.23865e-05
0.00204347
2.20807e-05
0.00204061
2.17799e-05
0.00203779
2.14919e-05
0.00203499
2.12085e-05
0.00203221
2.09431e-05
0.00202946
2.06721e-05
0.00202673
2.04358e-05
0.00202402
2.02049e-05
0.00202133
2.00287e-05
0.00201866
1.98552e-05
0.002016
1.98603e-05
0.00201332
2.00271e-05
0.00201058
2.10909e-05
0.00200779
2.30452e-05
0.00200471
2.68789e-05
2.90358e-05
0.0023332
0.000121736
0.00233861
0.000143112
0.00234005
0.000127187
0.00233951
0.000119747
0.00233775
0.000110607
0.0023352
0.000101646
0.00233219
9.46985e-05
0.00232894
8.91602e-05
0.00232558
8.4535e-05
0.00232219
8.06522e-05
0.00231882
7.7359e-05
0.0023155
7.4514e-05
0.00231224
7.20189e-05
0.00230907
6.98048e-05
0.00230597
6.78201e-05
0.00230294
6.60261e-05
0.00229999
6.43925e-05
0.00229711
6.28953e-05
0.00229429
6.15158e-05
0.00229153
6.02388e-05
0.00228882
5.90517e-05
0.00228616
5.79435e-05
0.00228354
5.69047e-05
0.00228095
5.59273e-05
0.0022784
5.50043e-05
0.00227587
5.41293e-05
0.00227336
5.32972e-05
0.00227087
5.25028e-05
0.00226839
5.17421e-05
0.00226592
5.10111e-05
0.00226346
5.03065e-05
0.00226099
4.96256e-05
0.00225853
4.8966e-05
0.00225605
4.83257e-05
0.00225357
4.77025e-05
0.00225108
4.70946e-05
0.00224858
4.65011e-05
0.00224606
4.59194e-05
0.00224352
4.5349e-05
0.00224096
4.47892e-05
0.00223839
4.42381e-05
0.00223579
4.36948e-05
0.00223317
4.31597e-05
0.00223052
4.26311e-05
0.00222785
4.2108e-05
0.00222515
4.15913e-05
0.00222243
4.10801e-05
0.00221968
4.05728e-05
0.00221691
4.00707e-05
0.00221412
3.9573e-05
0.0022113
3.90789e-05
0.00220845
3.85891e-05
0.00220558
3.81036e-05
0.0022027
3.76212e-05
0.00219979
3.71423e-05
0.00219686
3.66674e-05
0.00219392
3.61975e-05
0.00219096
3.57303e-05
0.00218798
3.52664e-05
0.00218499
3.48071e-05
0.00218199
3.43531e-05
0.00217898
3.39017e-05
0.00217596
3.34539e-05
0.00217294
3.30115e-05
0.00216991
3.25741e-05
0.00216688
3.214e-05
0.00216385
3.17111e-05
0.00216081
3.12872e-05
0.00215778
3.08683e-05
0.00215475
3.04538e-05
0.00215173
3.00453e-05
0.00214871
2.96419e-05
0.0021457
2.92441e-05
0.0021427
2.88509e-05
0.00213971
2.84635e-05
0.00213673
2.80815e-05
0.00213377
2.77061e-05
0.00213082
2.73363e-05
0.00212788
2.69731e-05
0.00212496
2.6614e-05
0.00212205
2.6263e-05
0.00211916
2.59147e-05
0.00211629
2.55768e-05
0.00211343
2.52407e-05
0.0021106
2.49165e-05
0.00210778
2.45967e-05
0.00210498
2.42897e-05
0.0021022
2.3987e-05
0.00209944
2.37027e-05
0.0020967
2.34127e-05
0.00209398
2.31582e-05
0.00209128
2.29099e-05
0.00208858
2.27202e-05
0.0020859
2.25377e-05
0.00208322
2.25371e-05
0.00208053
2.2712e-05
0.00207779
2.38291e-05
0.00207499
2.58365e-05
0.00207189
2.99367e-05
3.16385e-05
0.0023708
0.00011293
0.00237642
0.000137498
0.00237855
0.000125051
0.00237892
0.000119385
0.00237811
0.000111412
0.00237649
0.000103263
0.00237436
9.68372e-05
0.0023719
9.16186e-05
0.00236925
8.71868e-05
0.00236648
8.34127e-05
0.00236367
8.01692e-05
0.00236085
7.73349e-05
0.00235805
7.48252e-05
0.00235527
7.25804e-05
0.00235254
7.05553e-05
0.00234985
6.87154e-05
0.00234721
6.70336e-05
0.00234461
6.5488e-05
0.00234207
6.40613e-05
0.00233957
6.27391e-05
0.00233711
6.15094e-05
0.00233469
6.03617e-05
0.00233231
5.92868e-05
0.00232996
5.82767e-05
0.00232764
5.73245e-05
0.00232535
5.64239e-05
0.00232307
5.55694e-05
0.00232082
5.47563e-05
0.00231858
5.39801e-05
0.00231636
5.32368e-05
0.00231414
5.25231e-05
0.00231193
5.1836e-05
0.00230972
5.11732e-05
0.00230752
5.05322e-05
0.00230531
4.99111e-05
0.00230309
4.93075e-05
0.00230087
4.87206e-05
0.00229865
4.81479e-05
0.00229641
4.75884e-05
0.00229415
4.70415e-05
0.00229189
4.65051e-05
0.0022896
4.59781e-05
0.0022873
4.54604e-05
0.00228498
4.49509e-05
0.00228264
4.44481e-05
0.00228028
4.3952e-05
0.0022779
4.34628e-05
0.00227549
4.29784e-05
0.00227307
4.24992e-05
0.00227061
4.20247e-05
0.00226814
4.15546e-05
0.00226564
4.10883e-05
0.00226312
4.06261e-05
0.00226057
4.01671e-05
0.002258
3.97113e-05
0.00225541
3.92589e-05
0.0022528
3.88104e-05
0.00225016
3.83644e-05
0.00224751
3.79208e-05
0.00224484
3.74809e-05
0.00224214
3.7045e-05
0.00223943
3.66106e-05
0.00223671
3.61787e-05
0.00223397
3.5751e-05
0.00223122
3.53274e-05
0.00222845
3.49053e-05
0.00222568
3.44869e-05
0.00222289
3.40725e-05
0.0022201
3.36615e-05
0.0022173
3.32534e-05
0.00221449
3.28503e-05
0.00221168
3.24509e-05
0.00220887
3.20551e-05
0.00220606
3.16629e-05
0.00220325
3.12756e-05
0.00220044
3.08922e-05
0.00219763
3.05139e-05
0.00219483
3.01401e-05
0.00219203
2.9772e-05
0.00218923
2.94069e-05
0.00218645
2.90485e-05
0.00218367
2.86922e-05
0.0021809
2.83452e-05
0.00217814
2.79995e-05
0.00217539
2.76648e-05
0.00217266
2.73338e-05
0.00216993
2.70151e-05
0.00216722
2.67005e-05
0.00216452
2.64036e-05
0.00216183
2.61017e-05
0.00215915
2.58349e-05
0.00215648
2.55761e-05
0.00215383
2.53781e-05
0.00215117
2.51923e-05
0.00214851
2.51945e-05
0.00214585
2.53783e-05
0.00214314
2.65412e-05
0.00214036
2.86167e-05
0.00213732
3.29589e-05
3.41292e-05
0.00240899
0.000104654
0.00241463
0.00013185
0.00241722
0.000122463
0.00241824
0.000118364
0.00241818
0.000111477
0.00241732
0.000104117
0.00241593
9.82317e-05
0.00241417
9.33759e-05
0.00241217
8.91914e-05
0.00241
8.55823e-05
0.00240772
8.24433e-05
0.00240539
7.96703e-05
0.00240302
7.71916e-05
0.00240064
7.49562e-05
0.00239827
7.29256e-05
0.00239592
7.107e-05
0.00239359
6.93656e-05
0.00239128
6.77933e-05
0.00238901
6.63375e-05
0.00238676
6.49854e-05
0.00238454
6.37258e-05
0.00238236
6.25488e-05
0.0023802
6.1446e-05
0.00237806
6.04096e-05
0.00237596
5.9433e-05
0.00237387
5.851e-05
0.0023718
5.76355e-05
0.00236976
5.68045e-05
0.00236772
5.60128e-05
0.0023657
5.52563e-05
0.0023637
5.45318e-05
0.00236169
5.38362e-05
0.0023597
5.31671e-05
0.00235771
5.25221e-05
0.00235572
5.1899e-05
0.00235374
5.12956e-05
0.00235175
5.07107e-05
0.00234975
5.01421e-05
0.00234775
4.95885e-05
0.00234574
4.90491e-05
0.00234373
4.8522e-05
0.0023417
4.8006e-05
0.00233966
4.75007e-05
0.0023376
4.7005e-05
0.00233553
4.65175e-05
0.00233345
4.60376e-05
0.00233135
4.55656e-05
0.00232922
4.50998e-05
0.00232708
4.46398e-05
0.00232492
4.41852e-05
0.00232274
4.37359e-05
0.00232054
4.32909e-05
0.00231832
4.285e-05
0.00231607
4.2413e-05
0.0023138
4.19796e-05
0.00231151
4.15492e-05
0.0023092
4.11225e-05
0.00230687
4.06988e-05
0.00230451
4.02773e-05
0.00230213
3.98586e-05
0.00229973
3.94432e-05
0.00229731
3.90295e-05
0.00229488
3.86176e-05
0.00229242
3.82089e-05
0.00228994
3.78035e-05
0.00228745
3.7399e-05
0.00228494
3.69968e-05
0.00228241
3.6598e-05
0.00227987
3.62021e-05
0.00227732
3.58074e-05
0.00227475
3.54165e-05
0.00227217
3.50285e-05
0.00226959
3.46429e-05
0.00226699
3.42597e-05
0.00226438
3.38804e-05
0.00226177
3.35036e-05
0.00225916
3.31306e-05
0.00225654
3.27614e-05
0.00225391
3.23968e-05
0.00225128
3.20338e-05
0.00224866
3.16764e-05
0.00224603
3.13202e-05
0.0022434
3.09724e-05
0.00224077
3.0625e-05
0.00223815
3.02875e-05
0.00223553
2.99531e-05
0.00223292
2.96303e-05
0.00223031
2.93112e-05
0.0022277
2.90091e-05
0.0022251
2.8702e-05
0.00222251
2.84299e-05
0.00221992
2.81667e-05
0.00221733
2.79661e-05
0.00221474
2.77832e-05
0.00221214
2.77915e-05
0.00220952
2.79906e-05
0.00220687
2.91851e-05
0.00220416
3.13239e-05
0.00220128
3.58104e-05
3.64731e-05
0.00244779
9.6917e-05
0.00245337
0.000126278
0.00245623
0.000119597
0.00245772
0.000116877
0.00245822
0.000110982
0.00245797
0.000104364
0.00245719
9.90079e-05
0.00245604
9.45293e-05
0.00245461
9.06207e-05
0.00245298
8.72127e-05
0.00245121
8.42169e-05
0.00244933
8.1544e-05
0.00244739
7.91329e-05
0.00244541
7.69411e-05
0.0024434
7.49358e-05
0.00244137
7.3092e-05
0.00243935
7.13895e-05
0.00243733
6.9812e-05
0.00243532
6.83459e-05
0.00243333
6.69799e-05
0.00243135
6.57042e-05
0.00242939
6.45099e-05
0.00242745
6.33891e-05
0.00242552
6.23348e-05
0.00242361
6.13407e-05
0.00242172
6.04011e-05
0.00241985
5.95108e-05
0.00241799
5.86654e-05
0.00241614
5.78605e-05
0.0024143
5.70924e-05
0.00241248
5.63577e-05
0.00241066
5.56536e-05
0.00240885
5.49775e-05
0.00240704
5.43272e-05
0.00240524
5.37004e-05
0.00240344
5.30949e-05
0.00240164
5.25094e-05
0.00239984
5.19419e-05
0.00239804
5.13908e-05
0.00239624
5.08553e-05
0.00239442
5.03337e-05
0.00239261
4.98246e-05
0.00239078
4.93274e-05
0.00238894
4.88412e-05
0.0023871
4.83646e-05
0.00238524
4.78966e-05
0.00238336
4.74376e-05
0.00238148
4.6986e-05
0.00237958
4.65412e-05
0.00237766
4.61026e-05
0.00237573
4.56703e-05
0.00237377
4.5243e-05
0.0023718
4.48203e-05
0.00236981
4.44022e-05
0.0023678
4.39885e-05
0.00236578
4.35781e-05
0.00236373
4.31713e-05
0.00236166
4.27681e-05
0.00235957
4.23678e-05
0.00235746
4.19698e-05
0.00235532
4.15748e-05
0.00235317
4.11822e-05
0.002351
4.07912e-05
0.0023488
4.04026e-05
0.00234659
4.00171e-05
0.00234436
3.96325e-05
0.0023421
3.92495e-05
0.00233983
3.88693e-05
0.00233754
3.84916e-05
0.00233524
3.81144e-05
0.00233291
3.77399e-05
0.00233057
3.7368e-05
0.00232822
3.6998e-05
0.00232585
3.66291e-05
0.00232347
3.62631e-05
0.00232107
3.5899e-05
0.00231866
3.55377e-05
0.00231625
3.51793e-05
0.00231382
3.48245e-05
0.00231138
3.44703e-05
0.00230894
3.41205e-05
0.00230649
3.37716e-05
0.00230403
3.34298e-05
0.00230157
3.30877e-05