/*--------------------------------*- C++ -*----------------------------------*\
| =========                 |                                                 |
| \\      /  F ield         | OpenFOAM: The Open Source CFD Toolbox           |
|  \\    /   O peration     | Version:  3.0.0                                 |
|   \\  /    A nd           | Web:      www.OpenFOAM.org                      |
|    \\/     M anipulation  |                                                 |
\*---------------------------------------------------------------------------*/
FoamFile
{
    version     2.0;
    format      ascii;
    class       volVectorField;
    location    "275";
    object      U;
}
// * * * * * * * * * * * * * * * * * * * * * * * * * * * * * * * * * * * * * //

dimensions      [0 1 -1 0 0 0 0];

internalField   nonuniform List<vector> 
10000
(
(0.945473 -0.0620014 0)
(0.9013 -0.0254992 0)
(0.875736 -0.00573626 0)
(0.857599 -0.000443719 0)
(0.843352 0.000348807 0)
(0.830835 0.000311474 0)
(0.819224 0.000268228 0)
(0.808239 0.000281027 0)
(0.797745 0.00030806 0)
(0.78769 0.000328486 0)
(0.778069 0.00033835 0)
(0.768887 0.000339147 0)
(0.760138 0.000333201 0)
(0.751824 0.00032257 0)
(0.743944 0.000308987 0)
(0.736488 0.000293803 0)
(0.729441 0.000277955 0)
(0.722784 0.000262059 0)
(0.716499 0.000246544 0)
(0.710564 0.000231715 0)
(0.704958 0.000217763 0)
(0.699657 0.000204755 0)
(0.694641 0.000192706 0)
(0.68989 0.000181591 0)
(0.685384 0.000171366 0)
(0.681106 0.000161962 0)
(0.677039 0.000153321 0)
(0.673168 0.000145385 0)
(0.669479 0.000138094 0)
(0.665958 0.000131356 0)
(0.662596 0.000125116 0)
(0.65938 0.000119325 0)
(0.656303 0.00011395 0)
(0.653355 0.000108969 0)
(0.650527 0.000104339 0)
(0.647811 0.000100027 0)
(0.645201 9.60154e-05 0)
(0.64269 9.22574e-05 0)
(0.640273 8.87422e-05 0)
(0.637943 8.54621e-05 0)
(0.635695 8.23871e-05 0)
(0.633525 7.94895e-05 0)
(0.631428 7.67669e-05 0)
(0.6294 7.42056e-05 0)
(0.627438 7.17849e-05 0)
(0.625538 6.94957e-05 0)
(0.623697 6.7331e-05 0)
(0.621911 6.52846e-05 0)
(0.620179 6.33506e-05 0)
(0.618496 6.15079e-05 0)
(0.616862 5.97616e-05 0)
(0.615272 5.81052e-05 0)
(0.613726 5.65225e-05 0)
(0.612222 5.50069e-05 0)
(0.610757 5.35688e-05 0)
(0.60933 5.2196e-05 0)
(0.60794 5.08818e-05 0)
(0.606583 4.96234e-05 0)
(0.60526 4.84241e-05 0)
(0.603969 4.72738e-05 0)
(0.602708 4.61707e-05 0)
(0.601476 4.51136e-05 0)
(0.600272 4.41007e-05 0)
(0.599095 4.31252e-05 0)
(0.597944 4.21921e-05 0)
(0.596818 4.12945e-05 0)
(0.595715 4.04303e-05 0)
(0.594635 3.95917e-05 0)
(0.593578 3.87899e-05 0)
(0.592542 3.80134e-05 0)
(0.591527 3.72718e-05 0)
(0.590531 3.65481e-05 0)
(0.589555 3.5858e-05 0)
(0.588598 3.51856e-05 0)
(0.587658 3.4537e-05 0)
(0.586736 3.39054e-05 0)
(0.58583 3.33009e-05 0)
(0.584941 3.27219e-05 0)
(0.584067 3.21661e-05 0)
(0.583208 3.16177e-05 0)
(0.582364 3.10934e-05 0)
(0.581535 3.0566e-05 0)
(0.580718 3.00759e-05 0)
(0.579916 2.95842e-05 0)
(0.579125 2.91366e-05 0)
(0.578348 2.86924e-05 0)
(0.577582 2.83029e-05 0)
(0.576827 2.79764e-05 0)
(0.576083 2.76068e-05 0)
(0.575351 2.73555e-05 0)
(0.574621 2.70061e-05 0)
(0.573912 2.69806e-05 0)
(0.57319 2.69766e-05 0)
(0.57249 2.7149e-05 0)
(0.571774 2.65405e-05 0)
(0.571082 2.75507e-05 0)
(0.570359 3.66841e-05 0)
(0.569042 7.80989e-05 0)
(0.567174 0.000214865 0)
(0.5593 0.000284445 0)
(0.993362 0.0135315 0)
(0.977094 0.00921692 0)
(0.958096 0.00368161 0)
(0.943623 0.00182179 0)
(0.93299 0.00134682 0)
(0.92413 0.00118492 0)
(0.916283 0.00110477 0)
(0.909113 0.00104773 0)
(0.902349 0.000996771 0)
(0.895826 0.000950929 0)
(0.889461 0.000909638 0)
(0.883202 0.000871076 0)
(0.877032 0.000834014 0)
(0.870944 0.000797924 0)
(0.864934 0.000762669 0)
(0.859009 0.000728281 0)
(0.853179 0.000694815 0)
(0.847455 0.000662338 0)
(0.84185 0.000630974 0)
(0.836372 0.00060087 0)
(0.831032 0.000572131 0)
(0.825835 0.000544782 0)
(0.820786 0.000518841 0)
(0.815889 0.0004943 0)
(0.811146 0.000471143 0)
(0.806556 0.000449314 0)
(0.802118 0.000428778 0)
(0.79783 0.000409464 0)
(0.79369 0.000391323 0)
(0.789693 0.000374274 0)
(0.785836 0.00035825 0)
(0.782113 0.000343181 0)
(0.77852 0.000329014 0)
(0.775051 0.00031572 0)
(0.771703 0.000303211 0)
(0.76847 0.000291446 0)
(0.765346 0.000280391 0)
(0.762328 0.000269956 0)
(0.759411 0.000260125 0)
(0.756589 0.000250878 0)
(0.753859 0.00024215 0)
(0.751217 0.000233889 0)
(0.748658 0.000226086 0)
(0.746178 0.000218709 0)
(0.743775 0.000211711 0)
(0.741444 0.000205073 0)
(0.739183 0.000198777 0)
(0.736987 0.000192802 0)
(0.734855 0.000187133 0)
(0.732783 0.000181726 0)
(0.730769 0.000176589 0)
(0.72881 0.000171701 0)
(0.726903 0.000167028 0)
(0.725047 0.000162554 0)
(0.72324 0.000158295 0)
(0.721479 0.000154224 0)
(0.719762 0.000150326 0)
(0.718088 0.000146595 0)
(0.716455 0.00014303 0)
(0.714861 0.000139608 0)
(0.713304 0.000136322 0)
(0.711784 0.000133169 0)
(0.710299 0.000130147 0)
(0.708847 0.000127236 0)
(0.707427 0.000124449 0)
(0.706039 0.000121764 0)
(0.70468 0.000119181 0)
(0.70335 0.00011668 0)
(0.702048 0.000114283 0)
(0.700772 0.000111964 0)
(0.699523 0.00010974 0)
(0.698298 0.000107578 0)
(0.697097 0.000105506 0)
(0.69592 0.000103491 0)
(0.694765 0.000101552 0)
(0.693632 9.96662e-05 0)
(0.69252 9.78594e-05 0)
(0.691429 9.61141e-05 0)
(0.690357 9.44339e-05 0)
(0.689304 9.27853e-05 0)
(0.688269 9.12155e-05 0)
(0.687253 8.96592e-05 0)
(0.686253 8.81867e-05 0)
(0.68527 8.67307e-05 0)
(0.684303 8.53385e-05 0)
(0.683352 8.40116e-05 0)
(0.682416 8.2723e-05 0)
(0.681494 8.15872e-05 0)
(0.680587 8.03977e-05 0)
(0.679692 7.93636e-05 0)
(0.678809 7.82274e-05 0)
(0.677939 7.75465e-05 0)
(0.677076 7.69793e-05 0)
(0.67622 7.68224e-05 0)
(0.675369 7.60167e-05 0)
(0.674501 7.79166e-05 0)
(0.673695 9.16523e-05 0)
(0.672594 0.000145735 0)
(0.672306 0.000297334 0)
(0.669016 0.000335577 0)
(0.998648 0.0095321 0)
(0.993045 0.00609202 0)
(0.981645 0.00309536 0)
(0.971148 0.00225873 0)
(0.96286 0.00189291 0)
(0.955873 0.00164388 0)
(0.949767 0.00149496 0)
(0.944326 0.00140182 0)
(0.939331 0.00133333 0)
(0.934628 0.00127923 0)
(0.930121 0.00123411 0)
(0.925742 0.0011939 0)
(0.921447 0.00115623 0)
(0.917203 0.0011198 0)
(0.912989 0.00108411 0)
(0.908793 0.00104904 0)
(0.90461 0.00101448 0)
(0.900436 0.000980338 0)
(0.896272 0.000946701 0)
(0.892119 0.000913678 0)
(0.887982 0.000881346 0)
(0.88387 0.000849757 0)
(0.879787 0.000818998 0)
(0.875742 0.000789123 0)
(0.871741 0.000760183 0)
(0.867791 0.000732196 0)
(0.863898 0.000705204 0)
(0.860067 0.000679216 0)
(0.856304 0.000654239 0)
(0.852611 0.000630231 0)
(0.848994 0.00060721 0)
(0.845454 0.000585154 0)
(0.841992 0.000564075 0)
(0.83861 0.000543964 0)
(0.835309 0.000524745 0)
(0.832088 0.000506423 0)
(0.828947 0.000488965 0)
(0.825886 0.000472311 0)
(0.822904 0.000456465 0)
(0.819998 0.000441398 0)
(0.817168 0.000427036 0)
(0.814412 0.000413338 0)
(0.811728 0.000400308 0)
(0.809114 0.000387899 0)
(0.806569 0.000376052 0)
(0.804089 0.000364755 0)
(0.801674 0.000353987 0)
(0.799321 0.000343727 0)
(0.797028 0.000333934 0)
(0.794793 0.000324559 0)
(0.792614 0.000315623 0)
(0.79049 0.000307086 0)
(0.788417 0.000298899 0)
(0.786396 0.000291049 0)
(0.784423 0.000283559 0)
(0.782497 0.000276378 0)
(0.780617 0.000269485 0)
(0.778781 0.000262877 0)
(0.776987 0.000256549 0)
(0.775234 0.000250468 0)
(0.77352 0.000244619 0)
(0.771845 0.000238999 0)
(0.770206 0.000233606 0)
(0.768602 0.000228409 0)
(0.767033 0.000223417 0)
(0.765497 0.000218607 0)
(0.763993 0.000213973 0)
(0.76252 0.00020949 0)
(0.761077 0.000205182 0)
(0.759663 0.000201018 0)
(0.758277 0.000197016 0)
(0.756918 0.000193131 0)
(0.755585 0.000189398 0)
(0.754278 0.000185772 0)
(0.752995 0.000182277 0)
(0.751736 0.000178881 0)
(0.7505 0.000175619 0)
(0.749286 0.000172466 0)
(0.748095 0.000169427 0)
(0.746924 0.000166452 0)
(0.745773 0.00016361 0)
(0.744642 0.0001608 0)
(0.74353 0.000158144 0)
(0.742436 0.0001555 0)
(0.741361 0.000153004 0)
(0.740302 0.000150572 0)
(0.739261 0.000148272 0)
(0.738235 0.000146118 0)
(0.737225 0.000144023 0)
(0.736229 0.000142014 0)
(0.735249 0.000140081 0)
(0.734277 0.000138596 0)
(0.733324 0.00013752 0)
(0.732369 0.000136674 0)
(0.731435 0.000136011 0)
(0.730457 0.000137939 0)
(0.729539 0.000156484 0)
(0.728342 0.000219944 0)
(0.727885 0.000390352 0)
(0.726355 0.000470347 0)
(1.00062 0.00627971 0)
(1.00001 0.00496366 0)
(0.993124 0.00336025 0)
(0.985503 0.00277526 0)
(0.978969 0.0023555 0)
(0.973208 0.00203759 0)
(0.968094 0.0018413 0)
(0.963548 0.00171569 0)
(0.959424 0.00162455 0)
(0.955606 0.00155474 0)
(0.952014 0.00149885 0)
(0.948588 0.00145132 0)
(0.94528 0.00140878 0)
(0.942055 0.00136943 0)
(0.938885 0.00133227 0)
(0.935753 0.00129663 0)
(0.932642 0.00126207 0)
(0.929541 0.0012283 0)
(0.926442 0.00119518 0)
(0.923339 0.00116269 0)
(0.92023 0.00113078 0)
(0.917113 0.0010994 0)
(0.913986 0.00106857 0)
(0.910853 0.00103826 0)
(0.907714 0.00100848 0)
(0.904574 0.000979259 0)
(0.901435 0.000950625 0)
(0.898302 0.000922582 0)
(0.895179 0.000895158 0)
(0.89207 0.000868356 0)
(0.88898 0.000842233 0)
(0.885914 0.000816789 0)
(0.882875 0.000792074 0)
(0.879866 0.000768123 0)
(0.876893 0.000744912 0)
(0.873956 0.000722424 0)
(0.871061 0.000700662 0)
(0.868208 0.000679678 0)
(0.8654 0.000659482 0)
(0.862638 0.000640012 0)
(0.859924 0.000621243 0)
(0.857259 0.000603177 0)
(0.854642 0.000585826 0)
(0.852075 0.000569143 0)
(0.849558 0.000553083 0)
(0.847091 0.00053764 0)
(0.844674 0.00052283 0)
(0.842305 0.000508634 0)
(0.839985 0.000494968 0)
(0.837713 0.000481823 0)
(0.835488 0.000469234 0)
(0.833309 0.000457125 0)
(0.831176 0.000445463 0)
(0.829088 0.000434251 0)
(0.827043 0.000423505 0)
(0.825041 0.000413156 0)
(0.82308 0.000403187 0)
(0.821161 0.000393608 0)
(0.81928 0.000384404 0)
(0.817438 0.000375533 0)
(0.815634 0.000366975 0)
(0.813867 0.000358734 0)
(0.812135 0.000350813 0)
(0.810437 0.00034316 0)
(0.808773 0.000335791 0)
(0.807142 0.000328675 0)
(0.805543 0.000321811 0)
(0.803974 0.000315164 0)
(0.802436 0.000308763 0)
(0.800926 0.000302572 0)
(0.799445 0.000296608 0)
(0.797992 0.000290817 0)
(0.796565 0.000285238 0)
(0.795164 0.000279822 0)
(0.793789 0.000274592 0)
(0.792438 0.000269512 0)
(0.79111 0.000264621 0)
(0.789806 0.000259882 0)
(0.788525 0.000255318 0)
(0.787265 0.000250848 0)
(0.786027 0.000246573 0)
(0.784809 0.000242347 0)
(0.783611 0.00023835 0)
(0.782433 0.000234368 0)
(0.781274 0.000230615 0)
(0.780132 0.000226939 0)
(0.779009 0.000223479 0)
(0.777902 0.000220152 0)
(0.776812 0.000217037 0)
(0.775737 0.000213863 0)
(0.77468 0.000211097 0)
(0.773631 0.00020859 0)
(0.772601 0.000206913 0)
(0.771574 0.000205246 0)
(0.770567 0.000205129 0)
(0.769519 0.00020766 0)
(0.76852 0.000230265 0)
(0.767297 0.000294531 0)
(0.76665 0.000439269 0)
(0.765289 0.000534991 0)
(1.0015 0.00551712 0)
(1.00351 0.00513861 0)
(0.999537 0.00380596 0)
(0.994129 0.00320755 0)
(0.989102 0.00274517 0)
(0.984397 0.00238757 0)
(0.980074 0.00215553 0)
(0.976169 0.00199956 0)
(0.97261 0.0018842 0)
(0.969323 0.00179567 0)
(0.966254 0.00172546 0)
(0.963358 0.00166709 0)
(0.960595 0.00161651 0)
(0.957935 0.00157133 0)
(0.955352 0.00152997 0)
(0.952827 0.00149141 0)
(0.950344 0.00145498 0)
(0.94789 0.00142021 0)
(0.945453 0.00138678 0)
(0.943025 0.00135446 0)
(0.940601 0.00132306 0)
(0.938173 0.00129241 0)
(0.935739 0.00126246 0)
(0.933295 0.00123309 0)
(0.930839 0.00120426 0)
(0.92837 0.00117592 0)
(0.925888 0.00114802 0)
(0.923394 0.00112055 0)
(0.920887 0.00109349 0)
(0.918371 0.00106682 0)
(0.915846 0.00104057 0)
(0.913316 0.00101473 0)
(0.910783 0.000989368 0)
(0.90825 0.000964487 0)
(0.905719 0.000940086 0)
(0.903194 0.000916213 0)
(0.900678 0.000892794 0)
(0.898174 0.000869935 0)
(0.895684 0.000847701 0)
(0.893211 0.000825984 0)
(0.890759 0.000804833 0)
(0.888328 0.000784287 0)
(0.885921 0.000764332 0)
(0.88354 0.000744931 0)
(0.881187 0.000726097 0)
(0.878862 0.000707841 0)
(0.876568 0.000690165 0)
(0.874304 0.000673061 0)
(0.872074 0.000656485 0)
(0.869876 0.000640454 0)
(0.86771 0.000624978 0)
(0.865578 0.00060997 0)
(0.863481 0.000595444 0)
(0.861417 0.000581422 0)
(0.859387 0.000567892 0)
(0.857391 0.000554784 0)
(0.855429 0.000542111 0)
(0.8535 0.000529882 0)
(0.851604 0.000518077 0)
(0.84974 0.000506648 0)
(0.847909 0.000495589 0)
(0.84611 0.000484904 0)
(0.844342 0.000474592 0)
(0.842605 0.000464604 0)
(0.840898 0.000454955 0)
(0.839221 0.000445616 0)
(0.837573 0.000436582 0)
(0.835954 0.000427814 0)
(0.834362 0.00041935 0)
(0.832798 0.000411152 0)
(0.831261 0.000403229 0)
(0.829749 0.00039553 0)
(0.828264 0.000388092 0)
(0.826803 0.000380867 0)
(0.825367 0.000373874 0)
(0.823955 0.000367077 0)
(0.822566 0.000360516 0)
(0.8212 0.000354148 0)
(0.819856 0.000348011 0)
(0.818533 0.000341995 0)
(0.817232 0.000336227 0)
(0.815951 0.000330533 0)
(0.814691 0.00032513 0)
(0.81345 0.000319757 0)
(0.812228 0.000314681 0)
(0.811024 0.000309708 0)
(0.809838 0.000305018 0)
(0.80867 0.000300462 0)
(0.807519 0.000296239 0)
(0.806382 0.000291871 0)
(0.805264 0.000288171 0)
(0.804155 0.000284635 0)
(0.803065 0.000282187 0)
(0.801981 0.000279652 0)
(0.800914 0.000279991 0)
(0.799814 0.000283267 0)
(0.798752 0.000308697 0)
(0.797501 0.000372465 0)
(0.796736 0.000495374 0)
(0.795193 0.000599091 0)
(1.00183 0.00540975 0)
(1.00525 0.00533898 0)
(1.00324 0.00409611 0)
(0.999548 0.00352015 0)
(0.99582 0.00305672 0)
(0.992079 0.00268294 0)
(0.988485 0.00242843 0)
(0.985151 0.00224986 0)
(0.982065 0.00211465 0)
(0.97919 0.00200954 0)
(0.9765 0.00192574 0)
(0.973965 0.00185637 0)
(0.971557 0.00179701 0)
(0.969255 0.00174488 0)
(0.967037 0.00169809 0)
(0.964887 0.00165535 0)
(0.962791 0.00161578 0)
(0.960736 0.00157876 0)
(0.958713 0.00154377 0)
(0.956713 0.00151046 0)
(0.954727 0.00147858 0)
(0.952751 0.00144791 0)
(0.950779 0.00141826 0)
(0.948806 0.00138946 0)
(0.946828 0.00136139 0)
(0.944843 0.00133396 0)
(0.942848 0.00130708 0)
(0.940842 0.00128068 0)
(0.938822 0.00125471 0)
(0.936789 0.00122909 0)
(0.934742 0.00120383 0)
(0.93268 0.00117889 0)
(0.930606 0.00115429 0)
(0.928519 0.00113003 0)
(0.92642 0.0011061 0)
(0.924313 0.00108252 0)
(0.922197 0.0010592 0)
(0.920074 0.00103627 0)
(0.917948 0.00101379 0)
(0.915819 0.000991614 0)
(0.91369 0.000969814 0)
(0.911563 0.000948479 0)
(0.909441 0.000927551 0)
(0.907325 0.000907013 0)
(0.905217 0.00088693 0)
(0.903119 0.000867298 0)
(0.901033 0.000848105 0)
(0.89896 0.000829379 0)
(0.896904 0.000811074 0)
(0.894863 0.000793257 0)
(0.892841 0.000775933 0)
(0.890838 0.000758993 0)
(0.888855 0.000742504 0)
(0.886892 0.000726493 0)
(0.884951 0.000710917 0)
(0.883034 0.000695735 0)
(0.881139 0.000680998 0)
(0.879268 0.000666697 0)
(0.877421 0.000652806 0)
(0.875598 0.000639293 0)
(0.873799 0.000626168 0)
(0.872025 0.000613433 0)
(0.870276 0.000601082 0)
(0.868551 0.000589067 0)
(0.866851 0.000577422 0)
(0.865176 0.000566115 0)
(0.863525 0.000555138 0)
(0.861898 0.000544453 0)
(0.860295 0.000534106 0)
(0.858715 0.000524058 0)
(0.857159 0.000514315 0)
(0.855627 0.000504828 0)
(0.854117 0.000495636 0)
(0.852629 0.000486693 0)
(0.851164 0.000478014 0)
(0.849721 0.000469565 0)
(0.848299 0.000461391 0)
(0.846898 0.000453438 0)
(0.845518 0.000445756 0)
(0.844158 0.000438226 0)
(0.842819 0.000430982 0)
(0.841498 0.000423834 0)
(0.840197 0.000417026 0)
(0.838915 0.00041027 0)
(0.837651 0.00040386 0)
(0.836404 0.000397586 0)
(0.835175 0.000391644 0)
(0.833963 0.000385846 0)
(0.832768 0.000380481 0)
(0.831588 0.000374919 0)
(0.830424 0.000370227 0)
(0.829272 0.000365647 0)
(0.828136 0.000362357 0)
(0.827007 0.000358947 0)
(0.825896 0.000359548 0)
(0.824756 0.000363559 0)
(0.823648 0.000391309 0)
(0.82237 0.000454669 0)
(0.821527 0.000566519 0)
(0.819772 0.000671444 0)
(1.00188 0.00518659 0)
(1.006 0.00532037 0)
(1.00534 0.00423971 0)
(1.00297 0.00373502 0)
(1.00033 0.00329515 0)
(0.997454 0.00292252 0)
(0.994544 0.00265857 0)
(0.991754 0.00246661 0)
(0.989111 0.0023177 0)
(0.986612 0.00219995 0)
(0.984249 0.00210498 0)
(0.982011 0.00202599 0)
(0.979883 0.00195847 0)
(0.977848 0.00189951 0)
(0.975893 0.00184706 0)
(0.974005 0.0017997 0)
(0.972174 0.00175637 0)
(0.97039 0.00171633 0)
(0.968643 0.00167899 0)
(0.966928 0.0016439 0)
(0.965236 0.00161075 0)
(0.963562 0.00157922 0)
(0.9619 0.00154907 0)
(0.960247 0.0015201 0)
(0.958598 0.00149215 0)
(0.95695 0.00146508 0)
(0.9553 0.00143876 0)
(0.953644 0.00141307 0)
(0.951981 0.00138794 0)
(0.950309 0.00136328 0)
(0.948626 0.00133904 0)
(0.946931 0.00131517 0)
(0.945223 0.00129163 0)
(0.943502 0.00126842 0)
(0.941767 0.0012455 0)
(0.940019 0.00122288 0)
(0.938258 0.00120048 0)
(0.936483 0.00117835 0)
(0.934697 0.00115654 0)
(0.9329 0.00113493 0)
(0.931092 0.00111359 0)
(0.929276 0.00109259 0)
(0.927453 0.00107185 0)
(0.925624 0.00105133 0)
(0.92379 0.00103117 0)
(0.921954 0.00101134 0)
(0.920116 0.000991783 0)
(0.918279 0.000972547 0)
(0.916443 0.000953658 0)
(0.91461 0.000935147 0)
(0.912783 0.000916986 0)
(0.910962 0.000899109 0)
(0.909148 0.000881611 0)
(0.907343 0.000864521 0)
(0.905547 0.000847762 0)
(0.903764 0.000831323 0)
(0.901992 0.000815298 0)
(0.900233 0.000799639 0)
(0.898488 0.000784329 0)
(0.896758 0.000769367 0)
(0.895043 0.000754772 0)
(0.893344 0.000740533 0)
(0.891662 0.00072664 0)
(0.889997 0.000713071 0)
(0.88835 0.000699869 0)
(0.88672 0.000686995 0)
(0.885108 0.000674442 0)
(0.883515 0.000662181 0)
(0.88194 0.000650265 0)
(0.880384 0.000638654 0)
(0.878846 0.00062735 0)
(0.877327 0.000616315 0)
(0.875827 0.000605588 0)
(0.874345 0.000595126 0)
(0.872882 0.000584942 0)
(0.871438 0.000575004 0)
(0.870012 0.000565362 0)
(0.868604 0.000555963 0)
(0.867215 0.000546853 0)
(0.865843 0.000537911 0)
(0.864489 0.000529285 0)
(0.863153 0.000520773 0)
(0.861834 0.000512632 0)
(0.860531 0.000504559 0)
(0.859246 0.000496869 0)
(0.857977 0.00048934 0)
(0.856724 0.000482185 0)
(0.855487 0.000475183 0)
(0.854265 0.000468686 0)
(0.853058 0.000461978 0)
(0.851865 0.000456274 0)
(0.850684 0.00045068 0)
(0.849519 0.000446531 0)
(0.848359 0.000442285 0)
(0.847217 0.000442902 0)
(0.846051 0.000447511 0)
(0.844914 0.000477548 0)
(0.843618 0.000540773 0)
(0.842716 0.000650749 0)
(0.840805 0.000751291 0)
(1.0018 0.00486315 0)
(1.0062 0.00519597 0)
(1.00645 0.00429894 0)
(1.00507 0.00387501 0)
(1.00332 0.00346971 0)
(1.00121 0.00311056 0)
(0.998923 0.00284783 0)
(0.996649 0.00265068 0)
(0.994434 0.00249412 0)
(0.992295 0.00236807 0)
(0.990243 0.00226496 0)
(0.98828 0.0021784 0)
(0.986399 0.00210408 0)
(0.984593 0.00203912 0)
(0.982856 0.00198147 0)
(0.981178 0.00192961 0)
(0.979552 0.00188246 0)
(0.977972 0.00183919 0)
(0.97643 0.00179915 0)
(0.974921 0.00176186 0)
(0.97344 0.00172692 0)
(0.971981 0.001694 0)
(0.97054 0.0016628 0)
(0.969114 0.0016331 0)
(0.967697 0.0016047 0)
(0.966288 0.0015774 0)
(0.964882 0.00155108 0)
(0.963478 0.00152561 0)
(0.962073 0.00150087 0)
(0.960665 0.00147674 0)
(0.959251 0.00145316 0)
(0.95783 0.00143006 0)
(0.9564 0.00140738 0)
(0.954961 0.0013851 0)
(0.953511 0.00136315 0)
(0.95205 0.00134152 0)
(0.950577 0.00132016 0)
(0.94909 0.00129903 0)
(0.947591 0.00127819 0)
(0.94608 0.00125756 0)
(0.944555 0.00123713 0)
(0.943019 0.00121695 0)
(0.941471 0.00119697 0)
(0.939911 0.00117716 0)
(0.938341 0.0011576 0)
(0.936762 0.00113831 0)
(0.935174 0.00111917 0)
(0.933578 0.00110022 0)
(0.931976 0.00108157 0)
(0.930368 0.00106316 0)
(0.928757 0.00104498 0)
(0.927142 0.00102702 0)
(0.925525 0.00100936 0)
(0.923908 0.000991973 0)
(0.92229 0.000974819 0)
(0.920675 0.000957906 0)
(0.919062 0.000941349 0)
(0.917453 0.000925066 0)
(0.915849 0.000909039 0)
(0.91425 0.000893308 0)
(0.912658 0.000877892 0)
(0.911074 0.000862757 0)
(0.909498 0.000847908 0)
(0.907932 0.00083335 0)
(0.906375 0.000819117 0)
(0.904829 0.000805168 0)
(0.903294 0.000791505 0)
(0.901771 0.000778113 0)
(0.90026 0.000765043 0)
(0.898761 0.000752252 0)
(0.897276 0.000739749 0)
(0.895803 0.000727505 0)
(0.894345 0.000715561 0)
(0.8929 0.000703873 0)
(0.89147 0.000692456 0)
(0.890053 0.000681283 0)
(0.888651 0.00067041 0)
(0.887264 0.000659784 0)
(0.885891 0.000649442 0)
(0.884533 0.000639278 0)
(0.883189 0.00062944 0)
(0.88186 0.000619725 0)
(0.880546 0.000610393 0)
(0.879246 0.000601139 0)
(0.87796 0.000592292 0)
(0.876689 0.000583617 0)
(0.875431 0.000575349 0)
(0.874187 0.000567239 0)
(0.872958 0.000559687 0)
(0.871741 0.000551924 0)
(0.870537 0.000545259 0)
(0.869344 0.000538718 0)
(0.868164 0.000533786 0)
(0.866989 0.000528792 0)
(0.865829 0.000529247 0)
(0.864652 0.000534364 0)
(0.863502 0.00056664 0)
(0.8622 0.000630156 0)
(0.861251 0.000744591 0)
(0.859257 0.00083628 0)
(1.00168 0.00452785 0)
(1.0061 0.00503673 0)
(1.00695 0.00430419 0)
(1.0063 0.00395612 0)
(1.00525 0.0035904 0)
(1.00378 0.00325261 0)
(1.00206 0.00299877 0)
(1.00026 0.00280303 0)
(0.99845 0.00264416 0)
(0.99666 0.00251396 0)
(0.99491 0.00240587 0)
(0.993211 0.00231412 0)
(0.991566 0.00223475 0)
(0.989975 0.00216506 0)
(0.988435 0.00210307 0)
(0.986943 0.00204732 0)
(0.985494 0.00199671 0)
(0.984085 0.00195038 0)
(0.98271 0.00190768 0)
(0.981367 0.00186809 0)
(0.98005 0.0018312 0)
(0.978757 0.00179663 0)
(0.977484 0.00176408 0)
(0.976227 0.0017333 0)
(0.974984 0.00170406 0)
(0.973752 0.00167616 0)
(0.972528 0.00164944 0)
(0.971309 0.00162375 0)
(0.970094 0.00159897 0)
(0.968881 0.00157496 0)
(0.967666 0.00155165 0)
(0.96645 0.00152895 0)
(0.96523 0.00150678 0)
(0.964004 0.0014851 0)
(0.962772 0.00146386 0)
(0.961532 0.00144299 0)
(0.960284 0.00142248 0)
(0.959025 0.00140224 0)
(0.957756 0.0013823 0)
(0.956477 0.00136262 0)
(0.955186 0.00134315 0)
(0.953884 0.0013239 0)
(0.952569 0.00130486 0)
(0.951243 0.00128598 0)
(0.949905 0.00126729 0)
(0.948556 0.00124882 0)
(0.947196 0.00123047 0)
(0.945824 0.00121228 0)
(0.944443 0.0011943 0)
(0.943051 0.0011765 0)
(0.941651 0.00115883 0)
(0.940242 0.00114135 0)
(0.938826 0.00112407 0)
(0.937403 0.00110698 0)
(0.935975 0.00109004 0)
(0.934541 0.0010733 0)
(0.933103 0.00105681 0)
(0.931663 0.00104051 0)
(0.930219 0.00102438 0)
(0.928775 0.00100848 0)
(0.92733 0.00099285 0)
(0.925886 0.000977404 0)
(0.924443 0.000962172 0)
(0.923002 0.000947187 0)
(0.921564 0.000932459 0)
(0.92013 0.000917947 0)
(0.918701 0.000903678 0)
(0.917277 0.000889643 0)
(0.915859 0.000875876 0)
(0.914447 0.000862342 0)
(0.913042 0.000849061 0)
(0.911646 0.000836012 0)
(0.910257 0.000823231 0)
(0.908877 0.000810675 0)
(0.907506 0.000798365 0)
(0.906144 0.000786282 0)
(0.904793 0.000774481 0)
(0.903451 0.000762913 0)
(0.90212 0.00075161 0)
(0.900799 0.000740479 0)
(0.89949 0.000729666 0)
(0.898191 0.000718972 0)
(0.896903 0.000708656 0)
(0.895627 0.000698419 0)
(0.894362 0.000688597 0)
(0.893109 0.000678947 0)
(0.891866 0.000669722 0)
(0.890635 0.000660654 0)
(0.889416 0.000652179 0)
(0.888207 0.000643503 0)
(0.887009 0.00063598 0)
(0.88582 0.000628611 0)
(0.884642 0.000623004 0)
(0.883467 0.000617424 0)
(0.882305 0.000617659 0)
(0.881129 0.000623084 0)
(0.87998 0.000657527 0)
(0.878687 0.000721986 0)
(0.877706 0.000844464 0)
(0.875704 0.000923957 0)
(1.00154 0.00420806 0)
(1.00583 0.0048613 0)
(1.00706 0.00427018 0)
(1.00694 0.00399138 0)
(1.00643 0.00366676 0)
(1.00549 0.00335455 0)
(1.00425 0.00311463 0)
(1.00288 0.00292522 0)
(1.00145 0.00276839 0)
(0.999989 0.00263772 0)
(0.99853 0.00252764 0)
(0.997088 0.0024331 0)
(0.995673 0.00235058 0)
(0.994289 0.00227763 0)
(0.992938 0.00221245 0)
(0.99162 0.00215366 0)
(0.990335 0.00210022 0)
(0.989081 0.00205129 0)
(0.987854 0.00200624 0)
(0.986654 0.00196453 0)
(0.985478 0.00192576 0)
(0.984323 0.00188955 0)
(0.983187 0.00185558 0)
(0.982068 0.00182358 0)
(0.980962 0.00179332 0)
(0.979869 0.0017646 0)
(0.978786 0.00173723 0)
(0.977711 0.00171106 0)
(0.976643 0.00168594 0)
(0.975578 0.00166175 0)
(0.974517 0.00163839 0)
(0.973457 0.00161576 0)
(0.972396 0.00159379 0)
(0.971334 0.00157242 0)
(0.970268 0.00155156 0)
(0.969199 0.00153118 0)
(0.968125 0.00151123 0)
(0.967044 0.00149164 0)
(0.965956 0.0014724 0)
(0.96486 0.00145347 0)
(0.963756 0.0014348 0)
(0.962642 0.00141638 0)
(0.961519 0.0013982 0)
(0.960385 0.00138021 0)
(0.959241 0.0013624 0)
(0.958086 0.00134479 0)
(0.956921 0.00132734 0)
(0.955744 0.00131002 0)
(0.954557 0.00129288 0)
(0.953359 0.00127588 0)
(0.952151 0.00125899 0)
(0.950932 0.00124226 0)
(0.949703 0.00122568 0)
(0.948465 0.00120923 0)
(0.947218 0.00119288 0)
(0.945963 0.00117668 0)
(0.944699 0.00116068 0)
(0.943428 0.00114478 0)
(0.942151 0.00112901 0)
(0.940867 0.00111342 0)
(0.939579 0.00109802 0)
(0.938285 0.00108274 0)
(0.936988 0.00106759 0)
(0.935688 0.00105266 0)
(0.934385 0.00103792 0)
(0.933081 0.00102331 0)
(0.931776 0.0010089 0)
(0.93047 0.00099468 0)
(0.929165 0.000980659 0)
(0.927861 0.000966813 0)
(0.926559 0.000953184 0)
(0.92526 0.000939747 0)
(0.923963 0.000926524 0)
(0.92267 0.000913482 0)
(0.921381 0.000900652 0)
(0.920097 0.000888018 0)
(0.918817 0.00087563 0)
(0.917544 0.000863446 0)
(0.916277 0.000851499 0)
(0.915015 0.000839702 0)
(0.913761 0.000828198 0)
(0.912514 0.000816795 0)
(0.911274 0.000805752 0)
(0.910042 0.00079478 0)
(0.908818 0.000784213 0)
(0.907601 0.000773806 0)
(0.906393 0.000763829 0)
(0.905194 0.000754003 0)
(0.904002 0.000744783 0)
(0.902819 0.000735376 0)
(0.901644 0.000727148 0)
(0.900476 0.000719112 0)
(0.899316 0.000712968 0)
(0.898158 0.000706988 0)
(0.897009 0.000707026 0)
(0.895847 0.00071269 0)
(0.894712 0.000749097 0)
(0.893444 0.000815121 0)
(0.892447 0.000947025 0)
(0.890505 0.00101168 0)
(1.00139 0.00390594 0)
(1.00548 0.00467628 0)
(1.00694 0.00420825 0)
(1.00719 0.00399194 0)
(1.00709 0.00370748 0)
(1.00656 0.00342244 0)
(1.00573 0.0031993 0)
(1.00474 0.00301956 0)
(1.00365 0.00286806 0)
(1.00249 0.0027399 0)
(1.00131 0.00263044 0)
(1.00011 0.00253531 0)
(0.998919 0.00245148 0)
(0.997736 0.00237681 0)
(0.996569 0.00230967 0)
(0.99542 0.00224884 0)
(0.994292 0.00219337 0)
(0.993184 0.00214247 0)
(0.992096 0.00209554 0)
(0.991029 0.0020521 0)
(0.989979 0.00201172 0)
(0.988948 0.00197404 0)
(0.987932 0.00193875 0)
(0.986931 0.00190557 0)
(0.985942 0.00187429 0)
(0.984966 0.00184468 0)
(0.984 0.00181656 0)
(0.983042 0.00178976 0)
(0.982091 0.00176416 0)
(0.981147 0.0017396 0)
(0.980207 0.00171598 0)
(0.97927 0.00169321 0)
(0.978335 0.0016712 0)
(0.977401 0.00164988 0)
(0.976467 0.00162919 0)
(0.975531 0.00160904 0)
(0.974593 0.00158941 0)
(0.973652 0.00157022 0)
(0.972706 0.00155143 0)
(0.971756 0.00153303 0)
(0.970799 0.00151496 0)
(0.969836 0.00149717 0)
(0.968866 0.00147967 0)
(0.967888 0.00146241 0)
(0.966901 0.00144535 0)
(0.965906 0.00142851 0)
(0.964902 0.00141187 0)
(0.963889 0.00139538 0)
(0.962866 0.00137905 0)
(0.961833 0.00136287 0)
(0.96079 0.00134682 0)
(0.959736 0.00133091 0)
(0.958673 0.00131512 0)
(0.957601 0.00129943 0)
(0.956518 0.00128385 0)
(0.955425 0.00126839 0)
(0.954323 0.00125307 0)
(0.953213 0.00123784 0)
(0.952093 0.00122269 0)
(0.950965 0.00120767 0)
(0.949829 0.0011928 0)
(0.948686 0.001178 0)
(0.947535 0.0011633 0)
(0.946379 0.00114875 0)
(0.945216 0.00113435 0)
(0.944047 0.00112002 0)
(0.942874 0.00110583 0)
(0.941697 0.0010918 0)
(0.940516 0.00107791 0)
(0.939332 0.00106413 0)
(0.938145 0.00105053 0)
(0.936957 0.00103708 0)
(0.935767 0.00102378 0)
(0.934576 0.00101062 0)
(0.933386 0.00099763 0)
(0.932195 0.000984797 0)
(0.931006 0.000972161 0)
(0.929818 0.000959695 0)
(0.928631 0.000947431 0)
(0.927448 0.000935287 0)
(0.926267 0.000923393 0)
(0.925089 0.000911577 0)
(0.923915 0.000900091 0)
(0.922745 0.00088866 0)
(0.921579 0.00087761 0)
(0.920417 0.0008667 0)
(0.919261 0.000856207 0)
(0.918109 0.000845857 0)
(0.916963 0.000836109 0)
(0.915822 0.000826186 0)
(0.914686 0.000817444 0)
(0.913555 0.000808937 0)
(0.912429 0.000802424 0)
(0.911303 0.000796239 0)
(0.910182 0.000796223 0)
(0.909048 0.000802156 0)
(0.907939 0.000840201 0)
(0.906713 0.000908239 0)
(0.905719 0.00104891 0)
(0.903892 0.00109714 0)
(1.00126 0.00362133 0)
(1.0051 0.00448758 0)
(1.00668 0.00412775 0)
(1.00718 0.00396698 0)
(1.00738 0.00372024 0)
(1.00718 0.00346216 0)
(1.00668 0.00325702 0)
(1.006 0.00308893 0)
(1.00521 0.00294502 0)
(1.00433 0.00282161 0)
(1.0034 0.00271485 0)
(1.00244 0.00262103 0)
(1.00146 0.00253755 0)
(1.00047 0.00246257 0)
(0.999478 0.0023947 0)
(0.998493 0.00233286 0)
(0.997516 0.00227621 0)
(0.99655 0.00222406 0)
(0.995596 0.00217586 0)
(0.994654 0.00213115 0)
(0.993725 0.00208954 0)
(0.992808 0.0020507 0)
(0.991903 0.00201432 0)
(0.991009 0.00198015 0)
(0.990126 0.00194795 0)
(0.989252 0.00191751 0)
(0.988388 0.00188866 0)
(0.987531 0.00186124 0)
(0.986681 0.00183509 0)
(0.985838 0.00181009 0)
(0.984999 0.00178612 0)
(0.984164 0.00176308 0)
(0.983333 0.0017409 0)
(0.982503 0.00171948 0)
(0.981675 0.00169877 0)
(0.980847 0.00167867 0)
(0.980019 0.00165917 0)
(0.979189 0.00164018 0)
(0.978357 0.00162166 0)
(0.977523 0.00160359 0)
(0.976685 0.00158591 0)
(0.975843 0.00156856 0)
(0.974995 0.00155155 0)
(0.974143 0.00153484 0)
(0.973284 0.00151837 0)
(0.972419 0.00150215 0)
(0.971547 0.00148616 0)
(0.970667 0.00147037 0)
(0.969779 0.00145475 0)
(0.968884 0.0014393 0)
(0.96798 0.001424 0)
(0.967067 0.00140885 0)
(0.966145 0.00139382 0)
(0.965214 0.00137891 0)
(0.964274 0.00136411 0)
(0.963324 0.00134941 0)
(0.962366 0.00133483 0)
(0.961398 0.00132034 0)
(0.960421 0.00130593 0)
(0.959435 0.00129161 0)
(0.95844 0.00127742 0)
(0.957437 0.00126328 0)
(0.956425 0.0012492 0)
(0.955405 0.00123524 0)
(0.954378 0.0012214 0)
(0.953342 0.00120759 0)
(0.9523 0.00119389 0)
(0.951251 0.0011803 0)
(0.950196 0.00116682 0)
(0.949135 0.00115339 0)
(0.948068 0.00114011 0)
(0.946997 0.00112694 0)
(0.945921 0.00111387 0)
(0.944841 0.0011009 0)
(0.943758 0.00108806 0)
(0.942671 0.00107534 0)
(0.941582 0.00106276 0)
(0.940491 0.00105031 0)
(0.939399 0.00103804 0)
(0.938305 0.00102584 0)
(0.93721 0.00101385 0)
(0.936115 0.00100192 0)
(0.935021 0.000990273 0)
(0.933927 0.000978661 0)
(0.932833 0.000967395 0)
(0.931742 0.000956245 0)
(0.930651 0.000945491 0)
(0.929563 0.000934868 0)
(0.928477 0.000924828 0)
(0.927392 0.000914622 0)
(0.92631 0.000905585 0)
(0.92523 0.000896827 0)
(0.924152 0.000890132 0)
(0.923073 0.000883939 0)
(0.921996 0.000884073 0)
(0.920902 0.000890402 0)
(0.919833 0.000929727 0)
(0.91866 0.000999937 0)
(0.917689 0.00114727 0)