/*--------------------------------*- C++ -*----------------------------------*\
| =========                 |                                                 |
| \\      /  F ield         | OpenFOAM: The Open Source CFD Toolbox           |
|  \\    /   O peration     | Version:  4.1                                   |
|   \\  /    A nd           | Web:      www.OpenFOAM.org                      |
|    \\/     M anipulation  |                                                 |
\*---------------------------------------------------------------------------*/
FoamFile
{
    version     2.0;
    format      ascii;
    class       volVectorField;
    location    "0.75";
    object      U;
}
// * * * * * * * * * * * * * * * * * * * * * * * * * * * * * * * * * * * * * //

dimensions      [0 1 -1 0 0 0 0];

internalField   nonuniform List<vector> 
400
(
(-210.867 -210.867 0)
(-11.2923 -222.946 0)
(-11.6248 -235.635 0)
(-11.6942 -248.729 0)
(-11.3874 -261.89 0)
(-10.5868 -274.628 0)
(-9.1959 -286.288 0)
(-7.1753 -296.088 0)
(-4.57979 -303.217 0)
(-1.57603 -306.982 0)
(1.57603 -306.982 0)
(4.57979 -303.217 0)
(7.1753 -296.088 0)
(9.1959 -286.288 0)
(10.5868 -274.628 0)
(11.3874 -261.89 0)
(11.6942 -248.729 0)
(11.6248 -235.635 0)
(11.2923 -222.946 0)
(210.867 -210.867 0)
(-222.946 -11.2923 0)
(-13.4755 -13.4755 0)
(-14.1584 -16.0851 0)
(-14.561 -19.1505 0)
(-14.512 -22.6527 0)
(-13.8106 -26.4857 0)
(-12.2641 -30.4158 0)
(-9.75343 -34.0604 0)
(-6.31382 -36.9228 0)
(-2.18918 -38.5109 0)
(2.18918 -38.5109 0)
(6.31382 -36.9228 0)
(9.75343 -34.0604 0)
(12.2641 -30.4158 0)
(13.8106 -26.4857 0)
(14.512 -22.6527 0)
(14.561 -19.1505 0)
(14.1584 -16.0851 0)
(13.4755 -13.4755 0)
(222.946 -11.2923 0)
(-235.635 -11.6248 0)
(-16.0851 -14.1584 0)
(-17.2998 -17.2998 0)
(-18.2618 -21.1473 0)
(-18.7226 -25.7532 0)
(-18.35 -31.0567 0)
(-16.7707 -36.7882 0)
(-13.6823 -42.3795 0)
(-9.03023 -46.9648 0)
(-3.16405 -49.5848 0)
(3.16405 -49.5848 0)
(9.03023 -46.9648 0)
(13.6823 -42.3795 0)
(16.7707 -36.7882 0)
(18.35 -31.0567 0)
(18.7226 -25.7532 0)
(18.2618 -21.1473 0)
(17.2998 -17.2998 0)
(16.0851 -14.1584 0)
(235.635 -11.6248 0)
(-248.729 -11.6942 0)
(-19.1505 -14.561 0)
(-21.1473 -18.2618 0)
(-23.0145 -23.0145 0)
(-24.4213 -29.0265 0)
(-24.8456 -36.3961 0)
(-23.5869 -44.9222 0)
(-19.93 -53.8346 0)
(-13.5191 -61.6104 0)
(-4.80919 -66.2531 0)
(4.80919 -66.2531 0)
(13.5191 -61.6104 0)
(19.93 -53.8346 0)
(23.5869 -44.9222 0)
(24.8456 -36.3961 0)
(24.4213 -29.0265 0)
(23.0145 -23.0145 0)
(21.1473 -18.2618 0)
(19.1505 -14.561 0)
(248.729 -11.6942 0)
(-261.89 -11.3874 0)
(-22.6527 -14.512 0)
(-25.7532 -18.7226 0)
(-29.0265 -24.4213 0)
(-32.1041 -32.1041 0)
(-34.2457 -42.2673 0)
(-34.2092 -55.1097 0)
(-30.3705 -69.8836 0)
(-21.4487 -84.0169 0)
(-7.80675 -93.0622 0)
(7.80675 -93.0622 0)
(21.4487 -84.0169 0)
(30.3705 -69.8836 0)
(34.2092 -55.1097 0)
(34.2457 -42.2673 0)
(32.1041 -32.1041 0)
(29.0265 -24.4213 0)
(25.7532 -18.7226 0)
(22.6527 -14.512 0)
(261.89 -11.3874 0)
(-274.628 -10.5868 0)
(-26.4857 -13.8106 0)
(-31.0567 -18.35 0)
(-36.3961 -24.8456 0)
(-42.2673 -34.2457 0)
(-47.8512 -47.8512 0)
(-51.2033 -67.0863 0)
(-48.8372 -92.3781 0)
(-36.6978 -120.278 0)
(-13.8546 -140.374 0)
(13.8546 -140.374 0)
(36.6978 -120.278 0)
(48.8372 -92.3781 0)
(51.2033 -67.0863 0)
(47.8512 -47.8512 0)
(42.2673 -34.2457 0)
(36.3961 -24.8456 0)
(31.0567 -18.35 0)
(26.4857 -13.8106 0)
(274.628 -10.5868 0)
(-286.288 -9.1959 0)
(-30.4158 -12.2641 0)
(-36.7882 -16.7707 0)
(-44.9222 -23.5869 0)
(-55.1097 -34.2092 0)
(-67.0863 -51.2033 0)
(-78.7362 -78.7362 0)
(-83.5619 -122.187 0)
(-69.4448 -182.316 0)
(-27.9033 -236.372 0)
(27.9033 -236.372 0)
(69.4448 -182.316 0)
(83.5619 -122.187 0)
(78.7362 -78.7362 0)
(67.0863 -51.2033 0)
(55.1097 -34.2092 0)
(44.9222 -23.5869 0)
(36.7882 -16.7707 0)
(30.4158 -12.2641 0)
(286.288 -9.1959 0)
(-296.088 -7.1753 0)
(-34.0604 -9.75343 0)
(-42.3795 -13.6823 0)
(-53.8346 -19.93 0)
(-69.8836 -30.3705 0)
(-92.3781 -48.8372 0)
(-122.187 -83.5619 0)
(-152.417 -152.417 0)
(-150.882 -287.989 0)
(-67.9105 -482.225 0)
(67.9105 -482.225 0)
(150.882 -287.989 0)
(152.417 -152.417 0)
(122.187 -83.5619 0)
(92.3781 -48.8372 0)
(69.8836 -30.3705 0)
(53.8346 -19.93 0)
(42.3795 -13.6823 0)
(34.0604 -9.75343 0)
(296.088 -7.1753 0)
(-303.217 -4.57979 0)
(-36.9228 -6.31382 0)
(-46.9648 -9.03023 0)
(-61.6104 -13.5191 0)
(-84.0169 -21.4487 0)
(-120.278 -36.6978 0)
(-182.316 -69.4448 0)
(-287.989 -150.882 0)
(-399.253 -399.253 0)
(-222.139 -1409.63 0)
(222.139 -1409.63 0)
(399.253 -399.253 0)
(287.989 -150.882 0)
(182.316 -69.4448 0)
(120.278 -36.6978 0)
(84.0169 -21.4487 0)
(61.6104 -13.5191 0)
(46.9648 -9.03023 0)
(36.9228 -6.31382 0)
(303.217 -4.57979 0)
(-306.982 -1.57603 0)
(-38.5109 -2.18918 0)
(-49.5848 -3.16405 0)
(-66.2531 -4.80919 0)
(-93.0622 -7.80675 0)
(-140.374 -13.8546 0)
(-236.372 -27.9033 0)
(-482.225 -67.9105 0)
(-1409.63 -222.139 0)
(-1078.29 -1078.29 0)
(1078.29 -1078.29 0)
(1409.63 -222.139 0)
(482.225 -67.9105 0)
(236.372 -27.9033 0)
(140.374 -13.8546 0)
(93.0622 -7.80675 0)
(66.2531 -4.80919 0)
(49.5848 -3.16405 0)
(38.5109 -2.18918 0)
(306.982 -1.57603 0)
(-306.982 1.57603 0)
(-38.5109 2.18918 0)
(-49.5848 3.16405 0)
(-66.2531 4.80919 0)
(-93.0622 7.80675 0)
(-140.374 13.8546 0)
(-236.372 27.9033 0)
(-482.225 67.9105 0)
(-1409.63 222.139 0)
(-1078.29 1078.29 0)
(1078.29 1078.29 0)
(1409.63 222.139 0)
(482.225 67.9105 0)
(236.372 27.9033 0)
(140.374 13.8546 0)
(93.0622 7.80675 0)
(66.2531 4.80919 0)
(49.5848 3.16405 0)
(38.5109 2.18918 0)
(306.982 1.57603 0)
(-303.217 4.57979 0)
(-36.9228 6.31382 0)
(-46.9648 9.03023 0)
(-61.6104 13.5191 0)
(-84.0169 21.4487 0)
(-120.278 36.6978 0)
(-182.316 69.4448 0)
(-287.989 150.882 0)
(-399.253 399.253 0)
(-222.139 1409.63 0)
(222.139 1409.63 0)
(399.253 399.253 0)
(287.989 150.882 0)
(182.316 69.4448 0)
(120.278 36.6978 0)
(84.0169 21.4487 0)
(61.6104 13.5191 0)
(46.9648 9.03023 0)
(36.9228 6.31382 0)
(303.217 4.57979 0)
(-296.088 7.1753 0)
(-34.0604 9.75343 0)
(-42.3795 13.6823 0)
(-53.8346 19.93 0)
(-69.8836 30.3705 0)
(-92.3781 48.8372 0)
(-122.187 83.5619 0)
(-152.417 152.417 0)
(-150.882 287.989 0)
(-67.9105 482.225 0)
(67.9105 482.225 0)
(150.882 287.989 0)
(152.417 152.417 0)
(122.187 83.5619 0)
(92.3781 48.8372 0)
(69.8836 30.3705 0)
(53.8346 19.93 0)
(42.3795 13.6823 0)
(34.0604 9.75343 0)
(296.088 7.1753 0)
(-286.288 9.1959 0)
(-30.4158 12.2641 0)
(-36.7882 16.7707 0)
(-44.9222 23.5869 0)
(-55.1097 34.2092 0)
(-67.0863 51.2033 0)
(-78.7362 78.7362 0)
(-83.5619 122.187 0)
(-69.4448 182.316 0)
(-27.9033 236.372 0)
(27.9033 236.372 0)
(69.4448 182.316 0)
(83.5619 122.187 0)
(78.7362 78.7362 0)
(67.0863 51.2033 0)
(55.1097 34.2092 0)
(44.9222 23.5869 0)
(36.7882 16.7707 0)
(30.4158 12.2641 0)
(286.288 9.1959 0)
(-274.628 10.5868 0)
(-26.4857 13.8106 0)
(-31.0567 18.35 0)
(-36.3961 24.8456 0)
(-42.2673 34.2457 0)
(-47.8512 47.8512 0)
(-51.2033 67.0863 0)
(-48.8372 92.3781 0)
(-36.6978 120.278 0)
(-13.8546 140.374 0)
(13.8546 140.374 0)
(36.6978 120.278 0)
(48.8372 92.3781 0)
(51.2033 67.0863 0)
(47.8512 47.8512 0)
(42.2673 34.2457 0)
(36.3961 24.8456 0)
(31.0567 18.35 0)
(26.4857 13.8106 0)
(274.628 10.5868 0)
(-261.89 11.3874 0)
(-22.6527 14.512 0)
(-25.7532 18.7226 0)
(-29.0265 24.4213 0)
(-32.1041 32.1041 0)
(-34.2457 42.2673 0)
(-34.2092 55.1097 0)
(-30.3705 69.8836 0)
(-21.4487 84.0169 0)
(-7.80675 93.0622 0)
(7.80675 93.0622 0)
(21.4487 84.0169 0)
(30.3705 69.8836 0)
(34.2092 55.1097 0)
(34.2457 42.2673 0)
(32.1041 32.1041 0)
(29.0265 24.4213 0)
(25.7532 18.7226 0)
(22.6527 14.512 0)
(261.89 11.3874 0)
(-248.729 11.6942 0)
(-19.1505 14.561 0)
(-21.1473 18.2618 0)
(-23.0145 23.0145 0)
(-24.4213 29.0265 0)
(-24.8456 36.3961 0)
(-23.5869 44.9222 0)
(-19.93 53.8346 0)
(-13.5191 61.6104 0)
(-4.80919 66.2531 0)
(4.80919 66.2531 0)
(13.5191 61.6104 0)
(19.93 53.8346 0)
(23.5869 44.9222 0)
(24.8456 36.3961 0)
(24.4213 29.0265 0)
(23.0145 23.0145 0)
(21.1473 18.2618 0)
(19.1505 14.561 0)
(248.729 11.6942 0)
(-235.635 11.6248 0)
(-16.0851 14.1584 0)
(-17.2998 17.2998 0)
(-18.2618 21.1473 0)
(-18.7226 25.7532 0)
(-18.35 31.0567 0)
(-16.7707 36.7882 0)
(-13.6823 42.3795 0)
(-9.03023 46.9648 0)
(-3.16405 49.5848 0)
(3.16405 49.5848 0)
(9.03023 46.9648 0)
(13.6823 42.3795 0)
(16.7707 36.7882 0)
(18.35 31.0567 0)
(18.7226 25.7532 0)
(18.2618 21.1473 0)
(17.2998 17.2998 0)
(16.0851 14.1584 0)
(235.635 11.6248 0)
(-222.946 11.2923 0)
(-13.4755 13.4755 0)
(-14.1584 16.0851 0)
(-14.561 19.1505 0)
(-14.512 22.6527 0)
(-13.8106 26.4857 0)
(-12.2641 30.4158 0)
(-9.75343 34.0604 0)
(-6.31382 36.9228 0)
(-2.18918 38.5109 0)
(2.18918 38.5109 0)
(6.31382 36.9228 0)
(9.75343 34.0604 0)
(12.2641 30.4158 0)
(13.8106 26.4857 0)
(14.512 22.6527 0)
(14.561 19.1505 0)
(14.1584 16.0851 0)
(13.4755 13.4755 0)
(222.946 11.2923 0)
(-210.867 210.867 0)
(-11.2923 222.946 0)
(-11.6248 235.635 0)
(-11.6942 248.729 0)
(-11.3874 261.89 0)
(-10.5868 274.628 0)
(-9.1959 286.288 0)
(-7.1753 296.088 0)
(-4.57979 303.217 0)
(-1.57603 306.982 0)
(1.57603 306.982 0)
(4.57979 303.217 0)
(7.1753 296.088 0)
(9.1959 286.288 0)
(10.5868 274.628 0)
(11.3874 261.89 0)
(11.6942 248.729 0)
(11.6248 235.635 0)
(11.2923 222.946 0)
(210.867 210.867 0)
)
;

boundaryField
{
    movingWall
    {
        type            fixedValue;
        value           uniform (1 0 0);
    }
    fixedWalls
    {
        type            fixedValue;
        value           uniform (0 0 0);
    }
    frontAndBack
    {
        type            empty;
    }
}


// ************************************************************************* //
