/*--------------------------------*- C++ -*----------------------------------*\
| =========                 |                                                 |
| \\      /  F ield         | OpenFOAM: The Open Source CFD Toolbox           |
|  \\    /   O peration     | Version:  4.1                                   |
|   \\  /    A nd           | Web:      www.OpenFOAM.org                      |
|    \\/     M anipulation  |                                                 |
\*---------------------------------------------------------------------------*/
FoamFile
{
    version     2.0;
    format      ascii;
    class       volVectorField;
    location    "0.2";
    object      U;
}
// * * * * * * * * * * * * * * * * * * * * * * * * * * * * * * * * * * * * * //

dimensions      [0 1 -1 0 0 0 0];

internalField   nonuniform List<vector> 
400
(
(200.547 200.547 0)
(10.7397 212.034 0)
(11.0559 224.102 0)
(11.1218 236.555 0)
(10.8301 249.073 0)
(10.0687 261.187 0)
(8.74582 272.276 0)
(6.82412 281.597 0)
(4.35564 288.376 0)
(1.49889 291.957 0)
(-1.49889 291.957 0)
(-4.35564 288.376 0)
(-6.82412 281.597 0)
(-8.74582 272.276 0)
(-10.0687 261.187 0)
(-10.8301 249.073 0)
(-11.1218 236.555 0)
(-11.0559 224.102 0)
(-10.7397 212.034 0)
(-200.547 200.547 0)
(212.034 10.7397 0)
(12.816 12.816 0)
(13.4654 15.2978 0)
(13.8484 18.2132 0)
(13.8017 21.544 0)
(13.1347 25.1894 0)
(11.6639 28.9272 0)
(9.27606 32.3934 0)
(6.0048 35.1157 0)
(2.08203 36.626 0)
(-2.08203 36.626 0)
(-6.0048 35.1157 0)
(-9.27606 32.3934 0)
(-11.6639 28.9272 0)
(-13.1347 25.1894 0)
(-13.8017 21.544 0)
(-13.8484 18.2132 0)
(-13.4654 15.2978 0)
(-12.816 12.816 0)
(-212.034 10.7397 0)
(224.102 11.0559 0)
(15.2978 13.4654 0)
(16.4531 16.4531 0)
(17.368 20.1123 0)
(17.8062 24.4928 0)
(17.4519 29.5366 0)
(15.9498 34.9877 0)
(13.0127 40.3053 0)
(8.58826 44.6662 0)
(3.00919 47.1579 0)
(-3.00919 47.1579 0)
(-8.58826 44.6662 0)
(-13.0127 40.3053 0)
(-15.9498 34.9877 0)
(-17.4519 29.5366 0)
(-17.8062 24.4928 0)
(-17.368 20.1123 0)
(-16.4531 16.4531 0)
(-15.2978 13.4654 0)
(-224.102 11.0559 0)
(236.555 11.1218 0)
(18.2132 13.8484 0)
(20.1123 17.368 0)
(21.8881 21.8881 0)
(23.2261 27.6059 0)
(23.6296 34.6147 0)
(22.4325 42.7236 0)
(18.9546 51.1998 0)
(12.8575 58.595 0)
(4.57381 63.0105 0)
(-4.57381 63.0105 0)
(-12.8575 58.595 0)
(-18.9546 51.1998 0)
(-22.4325 42.7236 0)
(-23.6296 34.6147 0)
(-23.2261 27.6059 0)
(-21.8881 21.8881 0)
(-20.1123 17.368 0)
(-18.2132 13.8484 0)
(-236.555 11.1218 0)
(249.073 10.8301 0)
(21.544 13.8017 0)
(24.4928 17.8062 0)
(27.6059 23.2261 0)
(30.5328 30.5328 0)
(32.5696 40.1985 0)
(32.5349 52.4125 0)
(28.8841 66.4632 0)
(20.399 79.9048 0)
(7.42466 88.5074 0)
(-7.42466 88.5074 0)
(-20.399 79.9048 0)
(-28.8841 66.4632 0)
(-32.5349 52.4125 0)
(-32.5696 40.1985 0)
(-30.5328 30.5328 0)
(-27.6059 23.2261 0)
(-24.4928 17.8062 0)
(-21.544 13.8017 0)
(-249.073 10.8301 0)
(261.187 10.0687 0)
(25.1894 13.1347 0)
(29.5366 17.4519 0)
(34.6147 23.6296 0)
(40.1985 32.5696 0)
(45.5092 45.5092 0)
(48.6972 63.8028 0)
(46.4469 87.8568 0)
(34.9017 114.391 0)
(13.1765 133.504 0)
(-13.1765 133.504 0)
(-34.9017 114.391 0)
(-46.4469 87.8568 0)
(-48.6972 63.8028 0)
(-45.5092 45.5092 0)
(-40.1985 32.5696 0)
(-34.6147 23.6296 0)
(-29.5366 17.4519 0)
(-25.1894 13.1347 0)
(-261.187 10.0687 0)
(272.276 8.74582 0)
(28.9272 11.6639 0)
(34.9877 15.9498 0)
(42.7236 22.4325 0)
(52.4125 32.5349 0)
(63.8028 48.6972 0)
(74.8825 74.8825 0)
(79.4721 116.207 0)
(66.0459 173.392 0)
(26.5376 224.803 0)
(-26.5376 224.803 0)
(-66.0459 173.392 0)
(-79.4721 116.207 0)
(-74.8825 74.8825 0)
(-63.8028 48.6972 0)
(-52.4125 32.5349 0)
(-42.7236 22.4325 0)
(-34.9877 15.9498 0)
(-28.9272 11.6639 0)
(-272.276 8.74582 0)
(281.597 6.82412 0)
(32.3934 9.27606 0)
(40.3053 13.0127 0)
(51.1998 18.9546 0)
(66.4632 28.8841 0)
(87.8568 46.4469 0)
(116.207 79.4721 0)
(144.957 144.957 0)
(143.498 273.894 0)
(64.5868 458.623 0)
(-64.5868 458.623 0)
(-143.498 273.894 0)
(-144.957 144.957 0)
(-116.207 79.4721 0)
(-87.8568 46.4469 0)
(-66.4632 28.8841 0)
(-51.1998 18.9546 0)
(-40.3053 13.0127 0)
(-32.3934 9.27606 0)
(-281.597 6.82412 0)
(288.376 4.35564 0)
(35.1157 6.0048 0)
(44.6662 8.58826 0)
(58.595 12.8575 0)
(79.9048 20.399 0)
(114.391 34.9017 0)
(173.392 66.0459 0)
(273.894 143.498 0)
(379.712 379.712 0)
(211.267 1340.64 0)
(-211.267 1340.64 0)
(-379.712 379.712 0)
(-273.894 143.498 0)
(-173.392 66.0459 0)
(-114.391 34.9017 0)
(-79.9048 20.399 0)
(-58.595 12.8575 0)
(-44.6662 8.58826 0)
(-35.1157 6.0048 0)
(-288.376 4.35564 0)
(291.957 1.49889 0)
(36.626 2.08203 0)
(47.1579 3.00919 0)
(63.0105 4.57381 0)
(88.5074 7.42466 0)
(133.504 13.1765 0)
(224.803 26.5376 0)
(458.623 64.5868 0)
(1340.64 211.267 0)
(1025.51 1025.51 0)
(-1025.51 1025.51 0)
(-1340.64 211.267 0)
(-458.623 64.5868 0)
(-224.803 26.5376 0)
(-133.504 13.1765 0)
(-88.5074 7.42466 0)
(-63.0105 4.57381 0)
(-47.1579 3.00919 0)
(-36.626 2.08203 0)
(-291.957 1.49889 0)
(291.957 -1.49889 0)
(36.626 -2.08203 0)
(47.1579 -3.00919 0)
(63.0105 -4.57381 0)
(88.5074 -7.42466 0)
(133.504 -13.1765 0)
(224.803 -26.5376 0)
(458.623 -64.5868 0)
(1340.64 -211.267 0)
(1025.51 -1025.51 0)
(-1025.51 -1025.51 0)
(-1340.64 -211.267 0)
(-458.623 -64.5868 0)
(-224.803 -26.5376 0)
(-133.504 -13.1765 0)
(-88.5074 -7.42466 0)
(-63.0105 -4.57381 0)
(-47.1579 -3.00919 0)
(-36.626 -2.08203 0)
(-291.957 -1.49889 0)
(288.376 -4.35564 0)
(35.1157 -6.0048 0)
(44.6662 -8.58826 0)
(58.595 -12.8575 0)
(79.9048 -20.399 0)
(114.391 -34.9017 0)
(173.392 -66.0459 0)
(273.894 -143.498 0)
(379.712 -379.712 0)
(211.267 -1340.64 0)
(-211.267 -1340.64 0)
(-379.712 -379.712 0)
(-273.894 -143.498 0)
(-173.392 -66.0459 0)
(-114.391 -34.9017 0)
(-79.9048 -20.399 0)
(-58.595 -12.8575 0)
(-44.6662 -8.58826 0)
(-35.1157 -6.0048 0)
(-288.376 -4.35564 0)
(281.597 -6.82412 0)
(32.3934 -9.27606 0)
(40.3053 -13.0127 0)
(51.1998 -18.9546 0)
(66.4632 -28.8841 0)
(87.8568 -46.4469 0)
(116.207 -79.4721 0)
(144.957 -144.957 0)
(143.498 -273.894 0)
(64.5868 -458.623 0)
(-64.5868 -458.623 0)
(-143.498 -273.894 0)
(-144.957 -144.957 0)
(-116.207 -79.4721 0)
(-87.8568 -46.4469 0)
(-66.4632 -28.8841 0)
(-51.1998 -18.9546 0)
(-40.3053 -13.0127 0)
(-32.3934 -9.27606 0)
(-281.597 -6.82412 0)
(272.276 -8.74582 0)
(28.9272 -11.6639 0)
(34.9877 -15.9498 0)
(42.7236 -22.4325 0)
(52.4125 -32.5349 0)
(63.8028 -48.6972 0)
(74.8825 -74.8825 0)
(79.4721 -116.207 0)
(66.0459 -173.392 0)
(26.5376 -224.803 0)
(-26.5376 -224.803 0)
(-66.0459 -173.392 0)
(-79.4721 -116.207 0)
(-74.8825 -74.8825 0)
(-63.8028 -48.6972 0)
(-52.4125 -32.5349 0)
(-42.7236 -22.4325 0)
(-34.9877 -15.9498 0)
(-28.9272 -11.6639 0)
(-272.276 -8.74582 0)
(261.187 -10.0687 0)
(25.1894 -13.1347 0)
(29.5366 -17.4519 0)
(34.6147 -23.6296 0)
(40.1985 -32.5696 0)
(45.5092 -45.5092 0)
(48.6972 -63.8028 0)
(46.4469 -87.8568 0)
(34.9017 -114.391 0)
(13.1765 -133.504 0)
(-13.1765 -133.504 0)
(-34.9017 -114.391 0)
(-46.4469 -87.8568 0)
(-48.6972 -63.8028 0)
(-45.5092 -45.5092 0)
(-40.1985 -32.5696 0)
(-34.6147 -23.6296 0)
(-29.5366 -17.4519 0)
(-25.1894 -13.1347 0)
(-261.187 -10.0687 0)
(249.073 -10.8301 0)
(21.544 -13.8017 0)
(24.4928 -17.8062 0)
(27.6059 -23.2261 0)
(30.5328 -30.5328 0)
(32.5696 -40.1985 0)
(32.5349 -52.4125 0)
(28.8841 -66.4632 0)
(20.399 -79.9048 0)
(7.42466 -88.5074 0)
(-7.42466 -88.5074 0)
(-20.399 -79.9048 0)
(-28.8841 -66.4632 0)
(-32.5349 -52.4125 0)
(-32.5696 -40.1985 0)
(-30.5328 -30.5328 0)
(-27.6059 -23.2261 0)
(-24.4928 -17.8062 0)
(-21.544 -13.8017 0)
(-249.073 -10.8301 0)
(236.555 -11.1218 0)
(18.2132 -13.8484 0)
(20.1123 -17.368 0)
(21.8881 -21.8881 0)
(23.2261 -27.6059 0)
(23.6296 -34.6147 0)
(22.4325 -42.7236 0)
(18.9546 -51.1998 0)
(12.8575 -58.595 0)
(4.57381 -63.0105 0)
(-4.57381 -63.0105 0)
(-12.8575 -58.595 0)
(-18.9546 -51.1998 0)
(-22.4325 -42.7236 0)
(-23.6296 -34.6147 0)
(-23.2261 -27.6059 0)
(-21.8881 -21.8881 0)
(-20.1123 -17.368 0)
(-18.2132 -13.8484 0)
(-236.555 -11.1218 0)
(224.102 -11.0559 0)
(15.2978 -13.4654 0)
(16.4531 -16.4531 0)
(17.368 -20.1123 0)
(17.8062 -24.4928 0)
(17.4519 -29.5366 0)
(15.9498 -34.9877 0)
(13.0127 -40.3053 0)
(8.58826 -44.6662 0)
(3.00919 -47.1579 0)
(-3.00919 -47.1579 0)
(-8.58826 -44.6662 0)
(-13.0127 -40.3053 0)
(-15.9498 -34.9877 0)
(-17.4519 -29.5366 0)
(-17.8062 -24.4928 0)
(-17.368 -20.1123 0)
(-16.4531 -16.4531 0)
(-15.2978 -13.4654 0)
(-224.102 -11.0559 0)
(212.034 -10.7397 0)
(12.816 -12.816 0)
(13.4654 -15.2978 0)
(13.8484 -18.2132 0)
(13.8017 -21.544 0)
(13.1347 -25.1894 0)
(11.6639 -28.9272 0)
(9.27606 -32.3934 0)
(6.0048 -35.1157 0)
(2.08203 -36.626 0)
(-2.08203 -36.626 0)
(-6.0048 -35.1157 0)
(-9.27606 -32.3934 0)
(-11.6639 -28.9272 0)
(-13.1347 -25.1894 0)
(-13.8017 -21.544 0)
(-13.8484 -18.2132 0)
(-13.4654 -15.2978 0)
(-12.816 -12.816 0)
(-212.034 -10.7397 0)
(200.547 -200.547 0)
(10.7397 -212.034 0)
(11.0559 -224.102 0)
(11.1218 -236.555 0)
(10.8301 -249.073 0)
(10.0687 -261.187 0)
(8.74582 -272.276 0)
(6.82412 -281.597 0)
(4.35564 -288.376 0)
(1.49889 -291.957 0)
(-1.49889 -291.957 0)
(-4.35564 -288.376 0)
(-6.82412 -281.597 0)
(-8.74582 -272.276 0)
(-10.0687 -261.187 0)
(-10.8301 -249.073 0)
(-11.1218 -236.555 0)
(-11.0559 -224.102 0)
(-10.7397 -212.034 0)
(-200.547 -200.547 0)
)
;

boundaryField
{
    movingWall
    {
        type            fixedValue;
        value           uniform (1 0 0);
    }
    fixedWalls
    {
        type            fixedValue;
        value           uniform (0 0 0);
    }
    frontAndBack
    {
        type            empty;
    }
}


// ************************************************************************* //
