/*--------------------------------*- C++ -*----------------------------------*\
| =========                 |                                                 |
| \\      /  F ield         | OpenFOAM: The Open Source CFD Toolbox           |
|  \\    /   O peration     | Version:  4.1                                   |
|   \\  /    A nd           | Web:      www.OpenFOAM.org                      |
|    \\/     M anipulation  |                                                 |
\*---------------------------------------------------------------------------*/
FoamFile
{
    version     2.0;
    format      ascii;
    class       volVectorField;
    location    "0.5";
    object      U;
}
// * * * * * * * * * * * * * * * * * * * * * * * * * * * * * * * * * * * * * //

dimensions      [0 1 -1 0 0 0 0];

internalField   nonuniform List<vector> 
400
(
(1.19468e-13 1.19468e-13 0)
(6.39772e-15 1.26311e-13 0)
(6.58609e-15 1.335e-13 0)
(6.62538e-15 1.40918e-13 0)
(6.45157e-15 1.48375e-13 0)
(5.99802e-15 1.55592e-13 0)
(5.20997e-15 1.62198e-13 0)
(4.06519e-15 1.6775e-13 0)
(2.5947e-15 1.71789e-13 0)
(8.92903e-16 1.73922e-13 0)
(-8.92903e-16 1.73922e-13 0)
(-2.5947e-15 1.71789e-13 0)
(-4.06519e-15 1.6775e-13 0)
(-5.20997e-15 1.62198e-13 0)
(-5.99802e-15 1.55592e-13 0)
(-6.45157e-15 1.48375e-13 0)
(-6.62538e-15 1.40918e-13 0)
(-6.58609e-15 1.335e-13 0)
(-6.39772e-15 1.26311e-13 0)
(-1.19468e-13 1.19468e-13 0)
(1.26311e-13 6.39772e-15 0)
(7.63462e-15 7.63462e-15 0)
(8.02149e-15 9.11306e-15 0)
(8.24961e-15 1.08498e-14 0)
(8.22183e-15 1.2834e-14 0)
(7.82447e-15 1.50056e-14 0)
(6.94829e-15 1.72322e-14 0)
(5.52584e-15 1.92971e-14 0)
(3.57712e-15 2.09188e-14 0)
(1.24029e-15 2.18185e-14 0)
(-1.24029e-15 2.18185e-14 0)
(-3.57712e-15 2.09188e-14 0)
(-5.52584e-15 1.92971e-14 0)
(-6.94829e-15 1.72322e-14 0)
(-7.82447e-15 1.50056e-14 0)
(-8.22183e-15 1.2834e-14 0)
(-8.24961e-15 1.08498e-14 0)
(-8.02149e-15 9.11306e-15 0)
(-7.63462e-15 7.63462e-15 0)
(-1.26311e-13 6.39772e-15 0)
(1.335e-13 6.58609e-15 0)
(9.11306e-15 8.02149e-15 0)
(9.80125e-15 9.80125e-15 0)
(1.03463e-14 1.19811e-14 0)
(1.06073e-14 1.45906e-14 0)
(1.03963e-14 1.75953e-14 0)
(9.50148e-15 2.08425e-14 0)
(7.75177e-15 2.40103e-14 0)
(5.11611e-15 2.66081e-14 0)
(1.7926e-15 2.80925e-14 0)
(-1.7926e-15 2.80925e-14 0)
(-5.11611e-15 2.66081e-14 0)
(-7.75177e-15 2.40103e-14 0)
(-9.50148e-15 2.08425e-14 0)
(-1.03963e-14 1.75953e-14 0)
(-1.06073e-14 1.45906e-14 0)
(-1.03463e-14 1.19811e-14 0)
(-9.80125e-15 9.80125e-15 0)
(-9.11306e-15 8.02149e-15 0)
(-1.335e-13 6.58609e-15 0)
(1.40918e-13 6.62538e-15 0)
(1.08498e-14 8.24961e-15 0)
(1.19811e-14 1.03463e-14 0)
(1.3039e-14 1.3039e-14 0)
(1.3836e-14 1.64451e-14 0)
(1.40764e-14 2.06203e-14 0)
(1.33633e-14 2.54509e-14 0)
(1.12914e-14 3.05002e-14 0)
(7.65932e-15 3.49056e-14 0)
(2.72467e-15 3.7536e-14 0)
(-2.72467e-15 3.7536e-14 0)
(-7.65932e-15 3.49056e-14 0)
(-1.12914e-14 3.05002e-14 0)
(-1.33633e-14 2.54509e-14 0)
(-1.40764e-14 2.06203e-14 0)
(-1.3836e-14 1.64451e-14 0)
(-1.3039e-14 1.3039e-14 0)
(-1.19811e-14 1.03463e-14 0)
(-1.08498e-14 8.24961e-15 0)
(-1.40918e-13 6.62538e-15 0)
(1.48375e-13 6.45157e-15 0)
(1.2834e-14 8.22183e-15 0)
(1.45906e-14 1.06073e-14 0)
(1.64451e-14 1.3836e-14 0)
(1.81887e-14 1.81887e-14 0)
(1.9402e-14 2.39467e-14 0)
(1.93814e-14 3.12226e-14 0)
(1.72065e-14 3.95928e-14 0)
(1.21519e-14 4.76001e-14 0)
(4.42294e-15 5.27248e-14 0)
(-4.42294e-15 5.27248e-14 0)
(-1.21519e-14 4.76001e-14 0)
(-1.72065e-14 3.95928e-14 0)
(-1.93814e-14 3.12226e-14 0)
(-1.9402e-14 2.39467e-14 0)
(-1.81887e-14 1.81887e-14 0)
(-1.64451e-14 1.3836e-14 0)
(-1.45906e-14 1.06073e-14 0)
(-1.2834e-14 8.22183e-15 0)
(-1.48375e-13 6.45157e-15 0)
(1.55592e-13 5.99802e-15 0)
(1.50056e-14 7.82447e-15 0)
(1.75953e-14 1.03963e-14 0)
(2.06203e-14 1.40764e-14 0)
(2.39467e-14 1.9402e-14 0)
(2.71103e-14 2.71103e-14 0)
(2.90094e-14 3.8008e-14 0)
(2.76689e-14 5.23372e-14 0)
(2.07913e-14 6.81438e-14 0)
(7.84935e-15 7.95296e-14 0)
(-7.84935e-15 7.95296e-14 0)
(-2.07913e-14 6.81438e-14 0)
(-2.76689e-14 5.23372e-14 0)
(-2.90094e-14 3.8008e-14 0)
(-2.71103e-14 2.71103e-14 0)
(-2.39467e-14 1.9402e-14 0)
(-2.06203e-14 1.40764e-14 0)
(-1.75953e-14 1.03963e-14 0)
(-1.50056e-14 7.82447e-15 0)
(-1.55592e-13 5.99802e-15 0)
(1.62198e-13 5.20997e-15 0)
(1.72322e-14 6.94829e-15 0)
(2.08425e-14 9.50148e-15 0)
(2.54509e-14 1.33633e-14 0)
(3.12226e-14 1.93814e-14 0)
(3.8008e-14 2.90094e-14 0)
(4.46083e-14 4.46083e-14 0)
(4.73423e-14 6.92255e-14 0)
(3.93442e-14 1.03292e-13 0)
(1.58087e-14 1.33917e-13 0)
(-1.58087e-14 1.33917e-13 0)
(-3.93442e-14 1.03292e-13 0)
(-4.73423e-14 6.92255e-14 0)
(-4.46083e-14 4.46083e-14 0)
(-3.8008e-14 2.90094e-14 0)
(-3.12226e-14 1.93814e-14 0)
(-2.54509e-14 1.33633e-14 0)
(-2.08425e-14 9.50148e-15 0)
(-1.72322e-14 6.94829e-15 0)
(-1.62198e-13 5.20997e-15 0)
(1.6775e-13 4.06519e-15 0)
(1.92971e-14 5.52584e-15 0)
(2.40103e-14 7.75177e-15 0)
(3.05002e-14 1.12914e-14 0)
(3.95928e-14 1.72065e-14 0)
(5.23372e-14 2.76689e-14 0)
(6.92255e-14 4.73423e-14 0)
(8.63522e-14 8.63522e-14 0)
(8.54829e-14 1.63161e-13 0)
(3.8475e-14 2.73206e-13 0)
(-3.8475e-14 2.73206e-13 0)
(-8.54829e-14 1.63161e-13 0)
(-8.63522e-14 8.63522e-14 0)
(-6.92255e-14 4.73423e-14 0)
(-5.23372e-14 2.76689e-14 0)
(-3.95928e-14 1.72065e-14 0)
(-3.05002e-14 1.12914e-14 0)
(-2.40103e-14 7.75177e-15 0)
(-1.92971e-14 5.52584e-15 0)
(-1.6775e-13 4.06519e-15 0)
(1.71789e-13 2.5947e-15 0)
(2.09188e-14 3.57712e-15 0)
(2.66081e-14 5.11611e-15 0)
(3.49056e-14 7.65932e-15 0)
(4.76001e-14 1.21519e-14 0)
(6.81438e-14 2.07913e-14 0)
(1.03292e-13 3.93442e-14 0)
(1.63161e-13 8.54829e-14 0)
(2.26198e-13 2.26198e-13 0)
(1.25854e-13 7.98632e-13 0)
(-1.25854e-13 7.98632e-13 0)
(-2.26198e-13 2.26198e-13 0)
(-1.63161e-13 8.54829e-14 0)
(-1.03292e-13 3.93442e-14 0)
(-6.81438e-14 2.07913e-14 0)
(-4.76001e-14 1.21519e-14 0)
(-3.49056e-14 7.65932e-15 0)
(-2.66081e-14 5.11611e-15 0)
(-2.09188e-14 3.57712e-15 0)
(-1.71789e-13 2.5947e-15 0)
(1.73922e-13 8.92903e-16 0)
(2.18185e-14 1.24029e-15 0)
(2.80925e-14 1.7926e-15 0)
(3.7536e-14 2.72467e-15 0)
(5.27248e-14 4.42294e-15 0)
(7.95296e-14 7.84935e-15 0)
(1.33917e-13 1.58087e-14 0)
(2.73206e-13 3.8475e-14 0)
(7.98632e-13 1.25854e-13 0)
(6.10908e-13 6.10908e-13 0)
(-6.10908e-13 6.10908e-13 0)
(-7.98632e-13 1.25854e-13 0)
(-2.73206e-13 3.8475e-14 0)
(-1.33917e-13 1.58087e-14 0)
(-7.95296e-14 7.84935e-15 0)
(-5.27248e-14 4.42294e-15 0)
(-3.7536e-14 2.72467e-15 0)
(-2.80925e-14 1.7926e-15 0)
(-2.18185e-14 1.24029e-15 0)
(-1.73922e-13 8.92903e-16 0)
(1.73922e-13 -8.92903e-16 0)
(2.18185e-14 -1.24029e-15 0)
(2.80925e-14 -1.7926e-15 0)
(3.7536e-14 -2.72467e-15 0)
(5.27248e-14 -4.42294e-15 0)
(7.95296e-14 -7.84935e-15 0)
(1.33917e-13 -1.58087e-14 0)
(2.73206e-13 -3.8475e-14 0)
(7.98632e-13 -1.25854e-13 0)
(6.10908e-13 -6.10908e-13 0)
(-6.10908e-13 -6.10908e-13 0)
(-7.98632e-13 -1.25854e-13 0)
(-2.73206e-13 -3.8475e-14 0)
(-1.33917e-13 -1.58087e-14 0)
(-7.95296e-14 -7.84935e-15 0)
(-5.27248e-14 -4.42294e-15 0)
(-3.7536e-14 -2.72467e-15 0)
(-2.80925e-14 -1.7926e-15 0)
(-2.18185e-14 -1.24029e-15 0)
(-1.73922e-13 -8.92903e-16 0)
(1.71789e-13 -2.5947e-15 0)
(2.09188e-14 -3.57712e-15 0)
(2.66081e-14 -5.11611e-15 0)
(3.49056e-14 -7.65932e-15 0)
(4.76001e-14 -1.21519e-14 0)
(6.81438e-14 -2.07913e-14 0)
(1.03292e-13 -3.93442e-14 0)
(1.63161e-13 -8.54829e-14 0)
(2.26198e-13 -2.26198e-13 0)
(1.25854e-13 -7.98632e-13 0)
(-1.25854e-13 -7.98632e-13 0)
(-2.26198e-13 -2.26198e-13 0)
(-1.63161e-13 -8.54829e-14 0)
(-1.03292e-13 -3.93442e-14 0)
(-6.81438e-14 -2.07913e-14 0)
(-4.76001e-14 -1.21519e-14 0)
(-3.49056e-14 -7.65932e-15 0)
(-2.66081e-14 -5.11611e-15 0)
(-2.09188e-14 -3.57712e-15 0)
(-1.71789e-13 -2.5947e-15 0)
(1.6775e-13 -4.06519e-15 0)
(1.92971e-14 -5.52584e-15 0)
(2.40103e-14 -7.75177e-15 0)
(3.05002e-14 -1.12914e-14 0)
(3.95928e-14 -1.72065e-14 0)
(5.23372e-14 -2.76689e-14 0)
(6.92255e-14 -4.73423e-14 0)
(8.63522e-14 -8.63522e-14 0)
(8.54829e-14 -1.63161e-13 0)
(3.8475e-14 -2.73206e-13 0)
(-3.8475e-14 -2.73206e-13 0)
(-8.54829e-14 -1.63161e-13 0)
(-8.63522e-14 -8.63522e-14 0)
(-6.92255e-14 -4.73423e-14 0)
(-5.23372e-14 -2.76689e-14 0)
(-3.95928e-14 -1.72065e-14 0)
(-3.05002e-14 -1.12914e-14 0)
(-2.40103e-14 -7.75177e-15 0)
(-1.92971e-14 -5.52584e-15 0)
(-1.6775e-13 -4.06519e-15 0)
(1.62198e-13 -5.20997e-15 0)
(1.72322e-14 -6.94829e-15 0)
(2.08425e-14 -9.50148e-15 0)
(2.54509e-14 -1.33633e-14 0)
(3.12226e-14 -1.93814e-14 0)
(3.8008e-14 -2.90094e-14 0)
(4.46083e-14 -4.46083e-14 0)
(4.73423e-14 -6.92255e-14 0)
(3.93442e-14 -1.03292e-13 0)
(1.58087e-14 -1.33917e-13 0)
(-1.58087e-14 -1.33917e-13 0)
(-3.93442e-14 -1.03292e-13 0)
(-4.73423e-14 -6.92255e-14 0)
(-4.46083e-14 -4.46083e-14 0)
(-3.8008e-14 -2.90094e-14 0)
(-3.12226e-14 -1.93814e-14 0)
(-2.54509e-14 -1.33633e-14 0)
(-2.08425e-14 -9.50148e-15 0)
(-1.72322e-14 -6.94829e-15 0)
(-1.62198e-13 -5.20997e-15 0)
(1.55592e-13 -5.99802e-15 0)
(1.50056e-14 -7.82447e-15 0)
(1.75953e-14 -1.03963e-14 0)
(2.06203e-14 -1.40764e-14 0)
(2.39467e-14 -1.9402e-14 0)
(2.71103e-14 -2.71103e-14 0)
(2.90094e-14 -3.8008e-14 0)
(2.76689e-14 -5.23372e-14 0)
(2.07913e-14 -6.81438e-14 0)
(7.84935e-15 -7.95296e-14 0)
(-7.84935e-15 -7.95296e-14 0)
(-2.07913e-14 -6.81438e-14 0)
(-2.76689e-14 -5.23372e-14 0)
(-2.90094e-14 -3.8008e-14 0)
(-2.71103e-14 -2.71103e-14 0)
(-2.39467e-14 -1.9402e-14 0)
(-2.06203e-14 -1.40764e-14 0)
(-1.75953e-14 -1.03963e-14 0)
(-1.50056e-14 -7.82447e-15 0)
(-1.55592e-13 -5.99802e-15 0)
(1.48375e-13 -6.45157e-15 0)
(1.2834e-14 -8.22183e-15 0)
(1.45906e-14 -1.06073e-14 0)
(1.64451e-14 -1.3836e-14 0)
(1.81887e-14 -1.81887e-14 0)
(1.9402e-14 -2.39467e-14 0)
(1.93814e-14 -3.12226e-14 0)
(1.72065e-14 -3.95928e-14 0)
(1.21519e-14 -4.76001e-14 0)
(4.42294e-15 -5.27248e-14 0)
(-4.42294e-15 -5.27248e-14 0)
(-1.21519e-14 -4.76001e-14 0)
(-1.72065e-14 -3.95928e-14 0)
(-1.93814e-14 -3.12226e-14 0)
(-1.9402e-14 -2.39467e-14 0)
(-1.81887e-14 -1.81887e-14 0)
(-1.64451e-14 -1.3836e-14 0)
(-1.45906e-14 -1.06073e-14 0)
(-1.2834e-14 -8.22183e-15 0)
(-1.48375e-13 -6.45157e-15 0)
(1.40918e-13 -6.62538e-15 0)
(1.08498e-14 -8.24961e-15 0)
(1.19811e-14 -1.03463e-14 0)
(1.3039e-14 -1.3039e-14 0)
(1.3836e-14 -1.64451e-14 0)
(1.40764e-14 -2.06203e-14 0)
(1.33633e-14 -2.54509e-14 0)
(1.12914e-14 -3.05002e-14 0)
(7.65932e-15 -3.49056e-14 0)
(2.72467e-15 -3.7536e-14 0)
(-2.72467e-15 -3.7536e-14 0)
(-7.65932e-15 -3.49056e-14 0)
(-1.12914e-14 -3.05002e-14 0)
(-1.33633e-14 -2.54509e-14 0)
(-1.40764e-14 -2.06203e-14 0)
(-1.3836e-14 -1.64451e-14 0)
(-1.3039e-14 -1.3039e-14 0)
(-1.19811e-14 -1.03463e-14 0)
(-1.08498e-14 -8.24961e-15 0)
(-1.40918e-13 -6.62538e-15 0)
(1.335e-13 -6.58609e-15 0)
(9.11306e-15 -8.02149e-15 0)
(9.80125e-15 -9.80125e-15 0)
(1.03463e-14 -1.19811e-14 0)
(1.06073e-14 -1.45906e-14 0)
(1.03963e-14 -1.75953e-14 0)
(9.50148e-15 -2.08425e-14 0)
(7.75177e-15 -2.40103e-14 0)
(5.11611e-15 -2.66081e-14 0)
(1.7926e-15 -2.80925e-14 0)
(-1.7926e-15 -2.80925e-14 0)
(-5.11611e-15 -2.66081e-14 0)
(-7.75177e-15 -2.40103e-14 0)
(-9.50148e-15 -2.08425e-14 0)
(-1.03963e-14 -1.75953e-14 0)
(-1.06073e-14 -1.45906e-14 0)
(-1.03463e-14 -1.19811e-14 0)
(-9.80125e-15 -9.80125e-15 0)
(-9.11306e-15 -8.02149e-15 0)
(-1.335e-13 -6.58609e-15 0)
(1.26311e-13 -6.39772e-15 0)
(7.63462e-15 -7.63462e-15 0)
(8.02149e-15 -9.11306e-15 0)
(8.24961e-15 -1.08498e-14 0)
(8.22183e-15 -1.2834e-14 0)
(7.82447e-15 -1.50056e-14 0)
(6.94829e-15 -1.72322e-14 0)
(5.52584e-15 -1.92971e-14 0)
(3.57712e-15 -2.09188e-14 0)
(1.24029e-15 -2.18185e-14 0)
(-1.24029e-15 -2.18185e-14 0)
(-3.57712e-15 -2.09188e-14 0)
(-5.52584e-15 -1.92971e-14 0)
(-6.94829e-15 -1.72322e-14 0)
(-7.82447e-15 -1.50056e-14 0)
(-8.22183e-15 -1.2834e-14 0)
(-8.24961e-15 -1.08498e-14 0)
(-8.02149e-15 -9.11306e-15 0)
(-7.63462e-15 -7.63462e-15 0)
(-1.26311e-13 -6.39772e-15 0)
(1.19468e-13 -1.19468e-13 0)
(6.39772e-15 -1.26311e-13 0)
(6.58609e-15 -1.335e-13 0)
(6.62538e-15 -1.40918e-13 0)
(6.45157e-15 -1.48375e-13 0)
(5.99802e-15 -1.55592e-13 0)
(5.20997e-15 -1.62198e-13 0)
(4.06519e-15 -1.6775e-13 0)
(2.5947e-15 -1.71789e-13 0)
(8.92903e-16 -1.73922e-13 0)
(-8.92903e-16 -1.73922e-13 0)
(-2.5947e-15 -1.71789e-13 0)
(-4.06519e-15 -1.6775e-13 0)
(-5.20997e-15 -1.62198e-13 0)
(-5.99802e-15 -1.55592e-13 0)
(-6.45157e-15 -1.48375e-13 0)
(-6.62538e-15 -1.40918e-13 0)
(-6.58609e-15 -1.335e-13 0)
(-6.39772e-15 -1.26311e-13 0)
(-1.19468e-13 -1.19468e-13 0)
)
;

boundaryField
{
    movingWall
    {
        type            fixedValue;
        value           uniform (1 0 0);
    }
    fixedWalls
    {
        type            fixedValue;
        value           uniform (0 0 0);
    }
    frontAndBack
    {
        type            empty;
    }
}


// ************************************************************************* //
