/*--------------------------------*- C++ -*----------------------------------*\
| =========                 |                                                 |
| \\      /  F ield         | OpenFOAM: The Open Source CFD Toolbox           |
|  \\    /   O peration     | Version:  3.0.0                                 |
|   \\  /    A nd           | Web:      www.OpenFOAM.org                      |
|    \\/     M anipulation  |                                                 |
\*---------------------------------------------------------------------------*/
FoamFile
{
    version     2.0;
    format      ascii;
    class       volScalarField;
    location    "100";
    object      epsilon;
}
// * * * * * * * * * * * * * * * * * * * * * * * * * * * * * * * * * * * * * //

dimensions      [0 2 -3 0 0 0 0];

internalField   nonuniform List<scalar> 
10000
(
17.8345
4.42055
1.9696
1.18931
0.845926
0.662762
0.552227
0.479624
0.428901
0.391721
0.363408
0.341181
0.323234
0.308415
0.295968
0.285343
0.276166
0.268134
0.261041
0.254729
0.24907
0.243947
0.239272
0.235033
0.231097
0.227436
0.224056
0.220981
0.217913
0.215124
0.212342
0.210188
0.207743
0.205719
0.209602
0.260983
0.356822
0.419512
0.452105
0.467756
0.4756
0.479501
0.481715
0.482839
0.483589
0.483614
0.483578
0.483344
0.483439
0.483059
0.483189
0.48337
0.483337
0.483186
0.482287
0.482022
0.481163
0.479513
0.477315
0.473784
0.472263
0.46979
0.47001
0.470014
0.469786
0.470029
0.470299
0.470431
0.469885
0.468306
0.467098
0.467561
0.470701
0.473255
0.474298
0.47414
0.474664
0.475468
0.475484
0.475559
0.475206
0.475314
0.476838
0.477931
0.478361
0.478395
0.478634
0.478918
0.478151
0.477918
0.477873
0.477885
0.477508
0.477654
0.477683
0.47713
0.477182
0.476871
0.476714
0.476545
8.01846
2.58014
1.09705
0.595408
0.383707
0.277734
0.217788
0.180771
0.156408
0.139593
0.127564
0.118727
0.112062
0.106937
0.102938
0.0997677
0.0972174
0.0951344
0.0934014
0.0919454
0.0906902
0.0895973
0.0886053
0.0877404
0.086919
0.0861397
0.0854177
0.0847651
0.0840941
0.0833535
0.0828484
0.082073
0.081335
0.0799714
0.0812552
0.102447
0.136671
0.155309
0.162991
0.165472
0.165464
0.165301
0.164787
0.164281
0.163887
0.163367
0.163002
0.162554
0.162169
0.162016
0.16186
0.161933
0.161727
0.161814
0.161424
0.161254
0.161231
0.160814
0.16025
0.15915
0.158353
0.15746
0.157431
0.157252
0.157128
0.157283
0.157269
0.157529
0.157363
0.156981
0.156405
0.156448
0.157405
0.158472
0.158736
0.158692
0.158994
0.159109
0.159156
0.159155
0.159073
0.159104
0.159722
0.160113
0.160179
0.160155
0.16033
0.160261
0.160186
0.159968
0.159989
0.160056
0.159876
0.159861
0.159859
0.159743
0.159627
0.159579
0.159589
0.159406
6.80494
2.36309
1.0206
0.534131
0.324282
0.219811
0.161655
0.126385
0.10355
0.088006
0.077008
0.0689929
0.0630113
0.0584694
0.054973
0.0522523
0.0501196
0.0484417
0.0471128
0.0460669
0.0452354
0.0445813
0.0440471
0.0436466
0.0433128
0.0430329
0.042812
0.0426671
0.0425051
0.0423218
0.0422258
0.0421587
0.0418935
0.0416416
0.0425246
0.0557244
0.0776042
0.0906801
0.0967361
0.098989
0.0991297
0.0990588
0.0986752
0.0983347
0.0980078
0.0976399
0.097352
0.0970287
0.0967712
0.0965755
0.0963547
0.096345
0.0963803
0.0962635
0.0961713
0.095992
0.0960336
0.0957934
0.0955514
0.094885
0.0943769
0.0937463
0.0936443
0.0934898
0.0933379
0.0935426
0.0934048
0.0936023
0.0936298
0.0932315
0.0928989
0.0929032
0.0935348
0.0942041
0.0943017
0.0942818
0.0945693
0.0945799
0.0946158
0.0946154
0.0945627
0.0946361
0.0950883
0.0953034
0.0952725
0.0952726
0.0953985
0.095324
0.0953442
0.0951351
0.095122
0.095214
0.095108
0.0950397
0.0950305
0.0950587
0.0948615
0.0948287
0.0949569
0.0947317
6.56562
2.35746
1.03922
0.542077
0.322467
0.212086
0.150645
0.113561
0.0897
0.0735501
0.0621696
0.0538868
0.0477002
0.0429831
0.0393267
0.0364556
0.0341777
0.0323607
0.0308993
0.0297276
0.0287819
0.0280266
0.02741
0.0269382
0.0265576
0.0262509
0.0260177
0.0258743
0.0257434
0.025614
0.0255714
0.0255711
0.0254216
0.0253709
0.0260009
0.035644
0.0530559
0.0644291
0.0703023
0.0728513
0.0734456
0.0735651
0.0733475
0.0732164
0.0729893
0.072759
0.0725554
0.0723065
0.0721307
0.0719251
0.0717473
0.0717268
0.0717982
0.0716578
0.0716693
0.0715327
0.0715271
0.0713186
0.0712579
0.070765
0.0704119
0.0699311
0.0697965
0.0696609
0.0694246
0.0695889
0.0694724
0.0696088
0.0696851
0.0693392
0.0690873
0.0691199
0.0695895
0.0700477
0.0700893
0.0700804
0.0703351
0.0703354
0.070344
0.0703574
0.0703301
0.0704416
0.0707794
0.0708354
0.0708572
0.0709001
0.0708936
0.0709161
0.0709371
0.0707495
0.0707424
0.0707725
0.0707247
0.0706718
0.0706808
0.0706591
0.0705418
0.070522
0.0706574
0.0704408
6.52812
2.39198
1.07335
0.563339
0.333552
0.216736
0.151361
0.111839
0.0864371
0.0692857
0.0572296
0.0484712
0.0419336
0.0369437
0.0330639
0.0300018
0.0275538
0.0255797
0.0239707
0.0226574
0.0215766
0.0206905
0.0199508
0.0193563
0.0188638
0.0184531
0.0181219
0.0178835
0.0176759
0.0174798
0.0173794
0.0173305
0.0171445
0.0170927
0.0175971
0.0257951
0.0407568
0.0510093
0.0566621
0.0593373
0.0602433
0.0604667
0.060378
0.0603521
0.0602002
0.0600751
0.0599331
0.0597394
0.0596094
0.0593717
0.0592879
0.0592695
0.0593253
0.0592028
0.0591959
0.0591915
0.0590621
0.0589577
0.0589455
0.0585544
0.0582953
0.057887
0.0577427
0.0575904
0.0573516
0.0574257
0.0573905
0.057447
0.0575542
0.0572859
0.0570558
0.0571225
0.0574779
0.0578111
0.0578286
0.0578287
0.0580436
0.0580591
0.0580404
0.0580642
0.0580636
0.0581657
0.0584244
0.0584228
0.0584797
0.0584799
0.0584857
0.0584843
0.0585401
0.0583802
0.0583897
0.0583975
0.058373
0.0583132
0.058367
0.0583051
0.0582156
0.0582125
0.0583327
0.0581369
6.5363
2.42969
1.10595
0.585453
0.347362
0.224922
0.155866
0.113963
0.086995
0.0687787
0.0559776
0.0466862
0.0397558
0.0344672
0.0303522
0.0270988
0.0244898
0.0223756
0.0206416
0.019213
0.0180251
0.017036
0.0161999
0.0155085
0.0149249
0.0144263
0.0140091
0.0136831
0.0133973
0.0131248
0.0129567
0.0128543
0.012584
0.0124584
0.0129876
0.020629
0.0338835
0.0431988
0.0485568
0.0512341
0.0523525
0.0526793
0.0526217
0.0526318
0.0525195
0.0524945
0.0523947
0.0522444
0.0521333
0.0519199
0.0518716
0.0518716
0.0518903
0.0518045
0.0517989
0.0518143
0.0516728
0.0516141
0.0516206
0.0512981
0.051092
0.0507358
0.0505958
0.0504167
0.0501953
0.0502367
0.0502337
0.0502462
0.0503451
0.0501522
0.0499183
0.0500085
0.0502782
0.050534
0.0505464
0.0505538
0.0507252
0.050776
0.0507174
0.0507519
0.0507815
0.0508399
0.0510382
0.0510286
0.0510561
0.0511076
0.0511209
0.0510869
0.0511456
0.0510196
0.0510443
0.0510377
0.0510294
0.0509568
0.0510302
0.0509612
0.0508818
0.0508919
0.0509898
0.0508197
6.55041
2.46039
1.13275
0.604791
0.360478
0.233586
0.161481
0.117493
0.0890783
0.0698499
0.0563313
0.0465154
0.0391906
0.033601
0.0292508
0.0258091
0.0230459
0.0208018
0.0189565
0.0174291
0.0161529
0.0150816
0.0141706
0.0134057
0.0127531
0.0121888
0.0117073
0.0113151
0.0109689
0.0106361
0.0104115
0.0102556
0.00993422
0.00972895
0.0103559
0.0177797
0.0297369
0.0382542
0.0432985
0.0459182
0.0471361
0.0475411
0.0475362
0.0475391
0.047492
0.0475118
0.0474425
0.0473173
0.0472142
0.0470511
0.0470178
0.0470436
0.0470008
0.0469732
0.0469753
0.0469594
0.0468515
0.0468158
0.0468283
0.0465557
0.0463791
0.0460672
0.0459332
0.0457297
0.0455315
0.0455665
0.0455819
0.0455505
0.0456263
0.0455068
0.0452597
0.0453603
0.0455661
0.0457676
0.0457973
0.0458078
0.0459379
0.0459767
0.0459143
0.0459671
0.0460352
0.0460173
0.0461655
0.0461897
0.0462017
0.0462802
0.0462673
0.04625
0.0463032
0.0462019
0.0462482
0.0462179
0.0462309
0.0461363
0.0462221
0.0461567
0.0460815
0.0461035
0.0461705
0.046033
6.561
2.4826
1.15319
0.620453
0.371777
0.241561
0.167056
0.121355
0.0917133
0.0715951
0.0574186
0.0471109
0.0394167
0.033542
0.0289658
0.0253432
0.0224326
0.0200662
0.0181177
0.016501
0.015147
0.0140054
0.0130321
0.0122078
0.0115004
0.0108853
0.0103546
0.00991257
0.00952099
0.00914363
0.00887384
0.00867932
0.0083165
0.00805484
0.00880251
0.0161408
0.0270797
0.0349265
0.0396737
0.0422127
0.0434778
0.0439417
0.0440012
0.044008
0.0439889
0.0440314
0.043981
0.0438746
0.0437716
0.0436689
0.0436388
0.0436617
0.0436161
0.0436188
0.0435863
0.0435759
0.0435037
0.0434817
0.0434957
0.0432613
0.0431026
0.0428277
0.0426975
0.0424761
0.0423054
0.0422971
0.0423168
0.0422996
0.0423379
0.0422841
0.0420276
0.0421313
0.042287
0.0424398
0.0424578
0.0425265
0.0426051
0.0426067
0.0425717
0.0426333
0.0427031
0.0426677
0.0427908
0.0428279
0.0428258
0.0429103
0.0428779
0.0428869
0.0429435
0.042849
0.0428811
0.0428602
0.0429029
0.0427767
0.0428662
0.0428159
0.0427407
0.0427789
0.0427945
0.0427056
6.56728
2.49746
1.16798
0.632517
0.38098
0.248407
0.172103
0.125058
0.0944175
0.0735516
0.05881
0.0480702
0.0400395
0.0338998
0.0291156
0.0253256
0.0222771
0.019796
0.0177515
0.0160524
0.0146274
0.0134231
0.0123949
0.0115196
0.0107661
0.010109
0.00953844
0.00905693
0.00863012
0.00821824
0.00791255
0.00769111
0.00729163
0.00699572
0.00785899
0.0151576
0.0252842
0.0325747
0.0370577
0.0395128
0.0408005
0.0413127
0.0414494
0.0414574
0.0414444
0.0414988
0.0414557
0.0413649
0.0412503
0.0412245
0.0411838
0.0411828
0.0411703
0.0412002
0.0411355
0.0411304
0.0410772
0.0410663
0.0410801
0.0408762
0.0407291
0.0404857
0.0403545
0.040124
0.0399885
0.039941
0.0399636
0.0399507
0.0399739
0.0399464
0.0396915
0.0397925
0.0399072
0.0400121
0.0400096
0.04013
0.0401761
0.04017
0.0401425
0.0402096
0.0402644
0.0402405
0.0403583
0.0404033
0.0403722
0.0404554
0.040424
0.040449
0.040511
0.0404195
0.0404202
0.0404211
0.04047
0.0403398
0.0404224
0.0403971
0.0403165
0.0403855
0.0403581
0.0402901
6.57042
2.50677
1.17818
0.641436
0.38817
0.254018
0.176427
0.128374
0.096952
0.0754824
0.0602716
0.0491642
0.0408428
0.0344709
0.0294986
0.0255542
0.0223801
0.0197947
0.0176617
0.0158868
0.0143967
0.0131352
0.0120574
0.0111368
0.0103427
0.0096494
0.00904479
0.00853033
0.00807493
0.00763457
0.0072997
0.00705894
0.00662649
0.00631079
0.00727177
0.0145336
0.0240063
0.0308398
0.0350973
0.0374761
0.0387764
0.0393314
0.0395247
0.0395557
0.0395417
0.0395987
0.0395577
0.0394741
0.0393757
0.0394077
0.0393467
0.039342
0.0393456
0.0393989
0.039309
0.0393073
0.0392669
0.0392641
0.0392778
0.0390987
0.0389594
0.0387435
0.0386087
0.0383757
0.0382443
0.0381987
0.0382172
0.0382047
0.0382211
0.0382009
0.0379539
0.0380475
0.0381265
0.0381806
0.0381866
0.0383304
0.0383686
0.0383486
0.0383254
0.0383937
0.0384177
0.0384316
0.0385269
0.038578
0.038538
0.0386069
0.0385985
0.0386293
0.0386895
0.0386127
0.0385866
0.0385966
0.0386445
0.0385197
0.0385819
0.0386017
0.0385041
0.0385873
0.0385448
0.0384857
6.57171
2.51222
1.1849
0.647778
0.393587
0.258452
0.179987
0.131209
0.0992011
0.077262
0.0616753
0.050266
0.0417006
0.0351302
0.029995
0.0259158
0.0226291
0.0199479
0.0177351
0.0158921
0.0143428
0.0130294
0.0119064
0.0109449
0.0101145
0.00938903
0.00875431
0.00821129
0.0077318
0.00726671
0.00690738
0.00665184
0.00618997
0.00586151
0.00689652
0.0141016
0.0230455
0.0295073
0.0335786
0.0358941
0.0372054
0.0377962
0.0380407
0.0381028
0.038088
0.0381406
0.0381027
0.0380264
0.0379484
0.0380039
0.0379457
0.0379462
0.0379549
0.0380143
0.0379198
0.0379178
0.0378877
0.037891
0.0379049
0.0377461
0.0376126
0.0374209
0.0372816
0.0370502
0.036899
0.036886
0.0368963
0.0368806
0.0368943
0.0368714
0.0366349
0.0367156
0.0367603
0.0367912
0.0367997
0.0369523
0.0369989
0.0369559
0.0369376
0.0370029
0.0370133
0.037059
0.0371187
0.0371742
0.0371406
0.0372093
0.0372105
0.0372415
0.037294
0.037249
0.0371924
0.0372038
0.0372481
0.0371319
0.0371874
0.0372342
0.0371218
0.0372122
0.0371649
0.0371103
6.57204
2.51515
1.1891
0.65211
0.397527
0.261838
0.18282
0.133548
0.101119
0.078829
0.062952
0.0513029
0.0425392
0.0358041
0.0305314
0.0263368
0.0229525
0.0201883
0.0179043
0.0159992
0.0143968
0.0130371
0.0118734
0.0108752
0.0100121
0.00925777
0.00859603
0.00802774
0.00752749
0.00704031
0.00665978
0.0063925
0.00590475
0.00556552
0.0066467
0.0137651
0.0222794
0.0284416
0.0323642
0.0346323
0.0359575
0.0365805
0.0368736
0.0369599
0.0369623
0.0370025
0.0369671
0.0369073
0.0368436
0.0369087
0.0368596
0.0368745
0.0368772
0.0369351
0.0368469
0.0368426
0.0368209
0.0368287
0.0368432
0.0367012
0.0365724
0.0364021
0.0362552
0.0360315
0.0358712
0.035885
0.0358869
0.035862
0.0358772
0.0358435
0.0356195
0.0356789
0.0356886
0.0357215
0.0357293
0.0358816
0.0359272
0.0358773
0.0358615
0.0359208
0.0359257
0.0359893
0.0360141
0.0360724
0.0360618
0.0361346
0.0361415
0.0361661
0.0362072
0.0361838
0.0361197
0.0361258
0.0361638
0.0360585
0.0361123
0.0361689
0.0360537
0.0361468
0.0360984
0.0360464
6.57195
2.51654
1.19156
0.654937
0.400287
0.264339
0.185004
0.135417
0.102702
0.0801607
0.0640681
0.0522353
0.0433157
0.0364481
0.0310627
0.0267719
0.0233051
0.0204697
0.0181242
0.0161655
0.0145161
0.0131145
0.0119145
0.0108837
0.0099914
0.00921137
0.00852535
0.00793451
0.00741616
0.00690906
0.00650963
0.00623271
0.00572263
0.0053715
0.00646876
0.0134653
0.0216294
0.0275534
0.0313622
0.0335997
0.0349442
0.0355998
0.0359401
0.0360418
0.0360874
0.0361032
0.0360642
0.0360344
0.0359775
0.0360468
0.0360123
0.0360473
0.0360308
0.0360831
0.0360097
0.0360027
0.0359866
0.0359977
0.0360133
0.035885
0.0357607
0.035609
0.0354495
0.0352427
0.0350762
0.0350848
0.035079
0.0350736
0.0350958
0.0350419
0.0348301
0.0348543
0.0348603
0.0348894
0.0348948
0.0350413
0.0350825
0.035033
0.0350181
0.0350701
0.0350732
0.0351358
0.0351485
0.0352193
0.0352183
0.0353014
0.0353114
0.0353226
0.0353506
0.0353455
0.0352879
0.0352852
0.0353108
0.03522
0.035274
0.0353328
0.0352196
0.0353137
0.0352654
0.0352151
6.57172
2.51703
1.19287
0.656681
0.402141
0.266122
0.186634
0.136866
0.103969
0.0812581
0.0650125
0.0530447
0.0440068
0.0370362
0.0315612
0.0271924
0.0236577
0.0207629
0.0183654
0.0163608
0.0146708
0.0132333
0.0120014
0.0109413
0.0100231
0.00922045
0.00851286
0.00790187
0.00736776
0.00684283
0.00642613
0.00614133
0.00561245
0.00524687
0.00632915
0.0131658
0.0210438
0.0267815
0.0305085
0.0327325
0.0341029
0.0347941
0.0351807
0.0353165
0.0353797
0.0353809
0.0353624
0.0353432
0.035293
0.0353636
0.0353225
0.0353775
0.0353618
0.0353995
0.0353531
0.0353419
0.0353289
0.0353424
0.0353595
0.0352422
0.035123
0.0349866
0.0348123
0.034629
0.0344562
0.0344622
0.0344524
0.0344592
0.0344958
0.0344174
0.0342126
0.0342139
0.0342136
0.0342381
0.0342399
0.0343791
0.0344096
0.0343673
0.0343522
0.0343991
0.0343998
0.0344704
0.0344689
0.0345505
0.0345555
0.0346562
0.0346633
0.0346548
0.0346718
0.034682
0.0346435
0.0346309
0.0346292
0.0345615
0.0346155
0.0346726
0.0345637
0.0346581
0.0346101
0.034561
6.57148
2.51704
1.19346
0.657676
0.403324
0.267343
0.187809
0.137954
0.104954
0.0821365
0.0657888
0.0537262
0.0446024
0.0375546
0.0320108
0.0275809
0.0239918
0.0210487
0.0186083
0.0165654
0.0148412
0.0133731
0.0121137
0.0110286
0.0100877
0.00926497
0.00853825
0.00790948
0.00736179
0.00682114
0.00638843
0.00609711
0.00555307
0.00517009
0.0062071
0.0128435
0.020487
0.0260827
0.0297566
0.0319839
0.0333878
0.0341199
0.0345517
0.0347375
0.0348024
0.0348087
0.034813
0.0347905
0.0347486
0.0348175
0.0347727
0.0348297
0.0348312
0.0348435
0.0348382
0.0348187
0.0348073
0.0348226
0.0348414
0.034733
0.0346198
0.0344947
0.0343064
0.0341493
0.0339705
0.0339747
0.0339644
0.0339796
0.0340182
0.0339306
0.0337283
0.0337125
0.033706
0.0337265
0.0337238
0.033851
0.0338649
0.0338406
0.0338244
0.0338687
0.0338655
0.0339539
0.0339307
0.0340233
0.0340329
0.0341337
0.034127
0.0341256
0.0341389
0.034155
0.034122
0.0341168
0.0340887
0.0340414
0.0340964
0.0341485
0.034046
0.0341401
0.0340925
0.0340442
6.57128
2.51683
1.19363
0.658176
0.404028
0.26814
0.188625
0.138745
0.105696
0.0828196
0.0664091
0.0542844
0.0451012
0.0379982
0.0324036
0.0279273
0.0242962
0.0213151
0.0188402
0.0167661
0.0150137
0.0135201
0.0122376
0.0111312
0.010171
0.0093311
0.00858788
0.00794311
0.00738363
0.00682965
0.00638195
0.00608514
0.00552999
0.00512687
0.00609056
0.0124848
0.0199344
0.0254254
0.0290723
0.031319
0.0327643
0.0335437
0.0340206
0.0342742
0.034353
0.0343547
0.0343844
0.0343453
0.0343134
0.0343757
0.0343373
0.0344018
0.0344126
0.0344098
0.0344012
0.0344047
0.0343918
0.0344083
0.034429
0.0343281
0.0342215
0.0341042
0.0339047
0.03377
0.0335904
0.0335957
0.033584
0.0336029
0.0336401
0.0335499
0.033349
0.033319
0.0333065
0.0333242
0.0333163
0.033424
0.0334268
0.0334226
0.0334049
0.0334488
0.0334403
0.0335358
0.0335041
0.0336072
0.0336207
0.0337088
0.0337026
0.0337051
0.033718
0.0337345
0.0336985
0.0336998
0.0336682
0.0336296
0.0336877
0.0337296
0.0336369
0.0337302
0.033683
0.033635
6.57111
2.51651
1.19355
0.658363
0.404403
0.268626
0.189163
0.139297
0.106237
0.0833348
0.0668907
0.0547289
0.0455078
0.0383675
0.0327372
0.0282273
0.0245648
0.0215547
0.0190531
0.0169544
0.0151793
0.013665
0.0123635
0.0112394
0.0102629
0.00940856
0.00865136
0.00799274
0.00742332
0.00685819
0.00639614
0.00609427
0.0055332
0.0051073
0.00597341
0.012082
0.0193683
0.0247862
0.0284294
0.0307107
0.0322056
0.0330394
0.0335629
0.0338746
0.0339939
0.033989
0.0340244
0.0339885
0.0339651
0.0340104
0.0339909
0.0340709
0.0340569
0.0340725
0.0340524
0.0340729
0.0340595
0.0340768
0.0340993
0.0340052
0.0339056
0.0337936
0.0335865
0.0334684
0.0332937
0.0333048
0.0332881
0.0333073
0.0333411
0.033252
0.0330544
0.0330111
0.0329927
0.033008
0.0329945
0.0331011
0.033083
0.0330899
0.0330714
0.0331139
0.0331017
0.0331998
0.0331654
0.0332806
0.0332964
0.0333605
0.0333665
0.0333718
0.0333847
0.0333961
0.0333618
0.033357
0.0333409
0.0333036
0.0333685
0.0333897
0.0333142
0.0334057
0.0333588
0.0333109
6.57098
2.51618
1.19335
0.658363
0.404563
0.268895
0.189498
0.139665
0.106616
0.0837104
0.0672535
0.0550731
0.0458303
0.0386668
0.0330131
0.0284801
0.0247953
0.0217639
0.0192424
0.0171249
0.0153322
0.0138014
0.0124847
0.0113463
0.0103564
0.00949014
0.00872142
0.00805083
0.00747298
0.00689949
0.00642369
0.00611632
0.00555634
0.00510453
0.00585379
0.0116322
0.0187765
0.0241473
0.0278073
0.0301378
0.0316906
0.032586
0.0331589
0.0335253
0.0336904
0.0336918
0.0337193
0.033703
0.0336848
0.0337268
0.0337117
0.0337975
0.0337719
0.0337825
0.0337757
0.0338051
0.0337926
0.0338102
0.0338345
0.0337468
0.0336544
0.0335461
0.0333351
0.0332275
0.0330639
0.0330876
0.0330585
0.0330775
0.0331036
0.0330192
0.0328299
0.0327747
0.0327468
0.03276
0.0327406
0.0328392
0.0328139
0.0328257
0.0328062
0.0328458
0.032832
0.032931
0.0328962
0.0330293
0.033044
0.0330717
0.033101
0.0331081
0.0331208
0.0331187
0.0331034
0.0330931
0.0330844
0.0330457
0.0331258
0.0331173
0.0330594
0.0331488
0.0331026
0.0330543
6.57087
2.51585
1.1931
0.658259
0.404587
0.269016
0.189685
0.139894
0.106869
0.0839737
0.0675174
0.0553314
0.0460788
0.0389029
0.0332353
0.0286876
0.024988
0.0219419
0.0194061
0.0172748
0.0154688
0.0139256
0.0125971
0.0114473
0.0104467
0.00957083
0.00879289
0.00811209
0.00752706
0.00694802
0.00645892
0.00614462
0.00559647
0.00511329
0.00573264
0.0111362
0.0181503
0.0234949
0.0271898
0.0295829
0.031202
0.0321664
0.0327922
0.0332129
0.0334257
0.0334502
0.03348
0.0334716
0.0334579
0.0335072
0.0334858
0.0335726
0.0335399
0.0335532
0.0335529
0.0335877
0.0335773
0.0335944
0.03362
0.0335391
0.0334536
0.0333479
0.0331369
0.0330339
0.0328882
0.0329044
0.0328749
0.0329058
0.0329115
0.0328378
0.0326662
0.0325977
0.0325543
0.0325659
0.0325407
0.0326258
0.0326034
0.0326162
0.0325957
0.0326305
0.0326173
0.0327165
0.0326814
0.0328186
0.0328469
0.0328401
0.032892
0.0329002
0.0329121
0.0329091
0.0329056
0.0328868
0.0328854
0.0328422
0.0329276
0.032908
0.032857
0.0329457
0.0329005
0.0328515
6.57079
2.51555
1.19284
0.658102
0.404532
0.269042
0.189773
0.140024
0.107028
0.0841492
0.0677018
0.0555185
0.0462643
0.0390837
0.0334093
0.0288536
0.025145
0.0220894
0.019544
0.0174031
0.0155877
0.0140353
0.0126979
0.0115395
0.0105306
0.00964714
0.00886209
0.00817277
0.00758153
0.00699984
0.00649756
0.00617501
0.00565102
0.00512892
0.00561286
0.0105981
0.0174842
0.0228185
0.0265638
0.0290318
0.0307255
0.031766
0.0324495
0.0329257
0.0331872
0.0332527
0.033292
0.0332834
0.0332729
0.0333422
0.0333008
0.0333858
0.0333511
0.0333695
0.0333726
0.0334101
0.0334026
0.0334182
0.0334442
0.0333708
0.0332916
0.0331872
0.0329807
0.032877
0.0327574
0.0327442
0.0327317
0.0327581
0.0327509
0.0326969
0.0325338
0.0324561
0.0324059
0.0324145
0.0323834
0.0324465
0.0324392
0.0324501
0.0324288
0.032457
0.0324464
0.0325455
0.0325098
0.0326388
0.0326792
0.0326612
0.0327289
0.0327371
0.032747
0.0327528
0.0327305
0.0327275
0.032731
0.0326821
0.0327684
0.0327452
0.032697
0.0327851
0.0327415
0.0326913
6.57071
2.51527
1.19259
0.657925
0.404434
0.269011
0.189794
0.140085
0.107117
0.0842583
0.067824
0.0556484
0.0463978
0.0392178
0.0335417
0.0289826
0.0252694
0.0222085
0.0196573
0.0175102
0.0156883
0.0141297
0.012786
0.0116212
0.0106061
0.00971685
0.0089266
0.0082303
0.0076336
0.00705204
0.0065364
0.00620686
0.00570655
0.00515032
0.00549992
0.0100248
0.0167754
0.0221099
0.0259186
0.0284727
0.0302492
0.0313728
0.0321192
0.0326534
0.0329646
0.0330897
0.033146
0.0331278
0.0331201
0.0332
0.0331495
0.0332263
0.0331985
0.0332205
0.0332252
0.0332638
0.0332602
0.0332724
0.033297
0.0332324
0.0331587
0.0330541
0.0328574
0.0327484
0.0326656
0.0326207
0.0326189
0.0326264
0.0326219
0.0325868
0.0324293
0.0323363
0.0322926
0.0322969
0.0322597
0.0323125
0.0323097
0.0323185
0.0322966
0.0323169
0.0323103
0.0324092
0.0323733
0.0325001
0.0325598
0.0325194
0.0326027
0.0326104
0.0326154
0.0326426
0.0325908
0.0326054
0.0326093
0.0325558
0.0326415
0.032618
0.0325705
0.0326581
0.0326167
0.0325647
6.57065
2.51502
1.19234
0.657744
0.404316
0.268947
0.189773
0.140099
0.107157
0.0843188
0.0678991
0.0557336
0.0464896
0.0393134
0.0336389
0.0290798
0.0253653
0.0223021
0.0197479
0.0175973
0.0157715
0.0142088
0.0128609
0.0116917
0.0106722
0.00977867
0.00898484
0.00828301
0.00768145
0.00710225
0.00657382
0.0062378
0.00576006
0.00517576
0.00539842
0.0094267
0.016023
0.0213632
0.0252454
0.0278955
0.0297628
0.0309762
0.0317914
0.0323868
0.0327495
0.0329281
0.0330081
0.0329975
0.0329916
0.0330779
0.0330238
0.033082
0.0330741
0.0330977
0.0331028
0.0331421
0.0331437
0.0331498
0.0331693
0.0331164
0.0330471
0.0329417
0.0327602
0.0326437
0.0325802
0.0325262
0.03253
0.0325272
0.0325242
0.0324986
0.0323478
0.0322511
0.0322046
0.0322052
0.0321623
0.032209
0.032208
0.0322147
0.0321916
0.0322053
0.0322015
0.0323
0.0322642
0.0323906
0.0324597
0.0324078
0.0325102
0.0325136
0.032511
0.0325495
0.0324801
0.0325173
0.0325126
0.0324557
0.0325404
0.0325182
0.0324703
0.0325573
0.0325188
0.0324643
6.57059
2.51479
1.19212
0.657569
0.404192
0.268866
0.189729
0.140083
0.107165
0.0843452
0.0679397
0.055785
0.0465489
0.0393783
0.0337074
0.0291504
0.0254368
0.0223734
0.0198184
0.0176663
0.0158385
0.0142734
0.012923
0.0117511
0.0107285
0.00983205
0.00903602
0.00832994
0.00772403
0.00714873
0.00660934
0.00626494
0.0058114
0.00520373
0.00531222
0.00881565
0.0152282
0.0205739
0.024537
0.0272919
0.0292574
0.0305672
0.0314573
0.0321178
0.0325343
0.0327646
0.0328773
0.0328819
0.032881
0.0329717
0.0329169
0.0329676
0.0329684
0.032994
0.0329988
0.0330401
0.033049
0.0330452
0.0330518
0.0330168
0.0329506
0.0328465
0.0326856
0.0325544
0.0324959
0.0324531
0.0324587
0.03245
0.0324481
0.0324272
0.0322848
0.0322003
0.0321335
0.0321324
0.0320849
0.032127
0.0321274
0.0321328
0.0321078
0.0321164
0.0321139
0.032212
0.0321761
0.0323027
0.0323764
0.0323185
0.0324286
0.0324165
0.032429
0.0324716
0.0323911
0.0324476
0.0324345
0.0323755
0.0324592
0.0324393
0.03239
0.0324763
0.0324417
0.032384
6.57054
2.51458
1.19191
0.657403
0.404069
0.268779
0.189671
0.140051
0.107152
0.0843484
0.0679559
0.0558117
0.0465838
0.0394194
0.0337532
0.0291995
0.0254881
0.0224259
0.0198715
0.0177193
0.0158908
0.0143249
0.0129733
0.0117997
0.0107754
0.00987696
0.0090798
0.00837068
0.00776078
0.00719028
0.00664284
0.00628605
0.00586127
0.00523393
0.00524417
0.00820483
0.014393
0.0197391
0.0237879
0.0266545
0.0287252
0.0301378
0.0311091
0.0318389
0.0323123
0.0325945
0.0327489
0.0327754
0.032783
0.0328772
0.0328233
0.0328723
0.0328768
0.0329039
0.0329077
0.0329536
0.0329743
0.0329558
0.0329405
0.0329287
0.0328662
0.032767
0.0326285
0.0324703
0.0324332
0.0323936
0.0323996
0.0323874
0.0323862
0.0323677
0.0322367
0.0321574
0.0320803
0.0320714
0.0320224
0.0320605
0.0320624
0.0320679
0.0320401
0.0320448
0.0320425
0.0321398
0.0321039
0.0322305
0.0323063
0.0322457
0.0323588
0.0323331
0.0323608
0.0324055
0.0323182
0.0323861
0.0323698
0.03231
0.0323929
0.0323757
0.0323245
0.0324102
0.03238
0.0323185
6.57049
2.51439
1.19172
0.657249
0.403951
0.268692
0.189609
0.140008
0.107127
0.0843368
0.0679557
0.0558209
0.0466008
0.0394426
0.0337813
0.0292315
0.025523
0.022463
0.01991
0.0177587
0.0159306
0.0143647
0.0130128
0.0118386
0.0108133
0.00991379
0.00911633
0.00840525
0.0077916
0.00722631
0.00667417
0.00630053
0.00590944
0.00526567
0.00519532
0.00760825
0.0135205
0.0188575
0.0229934
0.0259774
0.0281597
0.0296808
0.0307399
0.0315435
0.0320774
0.032413
0.0326166
0.0326752
0.0326932
0.0327901
0.0327388
0.0327894
0.0327949
0.0328226
0.0328248
0.0328798
0.0328919
0.0328787
0.0328454
0.032848
0.0327912
0.0327023
0.0325826
0.0324081
0.0323818
0.0323429
0.0323482
0.0323339
0.0323333
0.0323161
0.0321999
0.0321228
0.0320425
0.0320179
0.0319707
0.0320052
0.0320091
0.0320159
0.0319841
0.0319857
0.0319829
0.0320793
0.0320431
0.0321698
0.032246
0.0321847
0.0322986
0.0322668
0.0323017
0.0323473
0.0322567
0.0323315
0.032314
0.0322548
0.0323372
0.0323223
0.0322696
0.0323547
0.032329
0.0322635
6.57045
2.51421
1.19155
0.657105
0.40384
0.268607
0.189545
0.139962
0.107094
0.0843161
0.067945
0.0558184
0.0466052
0.0394528
0.0337964
0.0292505
0.0255452
0.0224876
0.0199366
0.0177868
0.0159596
0.0143944
0.0130429
0.0118688
0.0108432
0.00994316
0.00914598
0.00843389
0.00781669
0.00725661
0.00670281
0.0063102
0.00595042
0.00529974
0.00516424
0.0070408
0.0126127
0.0179288
0.0221506
0.0252557
0.0275549
0.0291899
0.0303433
0.0312255
0.031824
0.0322154
0.0324712
0.0325762
0.0326089
0.0327069
0.0326595
0.0327152
0.0327192
0.0327466
0.0327462
0.0328192
0.0328052
0.0327915
0.0327619
0.0327729
0.0327208
0.0326481
0.032541
0.0323594
0.0323374
0.0322978
0.0323014
0.0322856
0.0322853
0.0322692
0.0321707
0.0320945
0.0320202
0.0319686
0.0319259
0.0319594
0.0319643
0.031973
0.0319359
0.031935
0.0319313
0.0320267
0.0319902
0.032117
0.0321921
0.0321314
0.0322452
0.0322121
0.0322483
0.0322937
0.0322027
0.0322817
0.0322634
0.0322061
0.0322885
0.0322749
0.0322216
0.0323061
0.0322844
0.0322153
6.57041
2.51406
1.19138
0.656973
0.403736
0.268527
0.189483
0.139914
0.107059
0.0842905
0.0679277
0.0558083
0.0466012
0.039454
0.0338019
0.0292598
0.0255577
0.0225027
0.0199539
0.0178058
0.0159799
0.0144157
0.0130651
0.0118914
0.0108661
0.00996591
0.00916939
0.0084571
0.00783654
0.00728124
0.00672863
0.00631649
0.00598099
0.00534237
0.00514039
0.006521
0.0116692
0.0169544
0.0212573
0.0244851
0.0269059
0.0286598
0.0299135
0.0308793
0.0315472
0.0319974
0.0323073
0.0324768
0.0325282
0.0326241
0.032583
0.0326482
0.0326469
0.032673
0.0326683
0.0327507
0.0327257
0.032718
0.032682
0.0326968
0.0326497
0.0326002
0.0324999
0.0323191
0.0322967
0.0322562
0.0322567
0.032239
0.0322394
0.0322251
0.0321437
0.0320687
0.0319886
0.0319241
0.0318863
0.0319195
0.0319254
0.031936
0.0318922
0.0318893
0.0318845
0.0319791
0.0319421
0.0320697
0.0321411
0.0320828
0.0321954
0.0321653
0.0321982
0.0322418
0.032153
0.0322341
0.0322153
0.0321609
0.0322436
0.0322307
0.0321773
0.0322614
0.0322426
0.0321708
6.57037
2.51391
1.19124
0.65685
0.403639
0.268451
0.189424
0.139868
0.107023
0.0842627
0.067907
0.0557936
0.0465917
0.0394491
0.0338009
0.0292622
0.025563
0.0225105
0.0199638
0.0178176
0.0159932
0.0144301
0.0130806
0.0119077
0.0108829
0.00998293
0.00918725
0.00847542
0.00785177
0.00730037
0.00675162
0.00632039
0.00599927
0.00541177
0.00508289
0.00607338
0.0106869
0.0159375
0.020313
0.0236629
0.0262083
0.0280854
0.0294455
0.0304997
0.0312421
0.031755
0.0321211
0.0323481
0.0324459
0.0325377
0.0325074
0.0325901
0.0325755
0.0325989
0.0325889
0.032677
0.0326464
0.0326574
0.0326027
0.0326141
0.0325695
0.0325493
0.0324576
0.0322846
0.0322572
0.0322163
0.0322123
0.0321918
0.0321934
0.0321825
0.0321161
0.0320427
0.0319534
0.0318851
0.0318488
0.0318801
0.0318903
0.0319009
0.0318505
0.0318455
0.0318398
0.0319338
0.0318962
0.0320263
0.0320896
0.0320363
0.0321457
0.032124
0.0321497
0.0321891
0.0321051
0.0321858
0.032168
0.0321166
0.0321999
0.0321872
0.0321343
0.0322179
0.0322007
0.0321275
6.57034
2.51378
1.1911
0.656737
0.403549
0.26838
0.189368
0.139823
0.106987
0.0842344
0.0678847
0.0557765
0.0465791
0.0394403
0.0337956
0.0292598
0.0255633
0.022513
0.0199684
0.0178239
0.016001
0.0144391
0.0130908
0.0119188
0.0108947
0.00999513
0.00920038
0.00848948
0.00786315
0.00731443
0.00677189
0.00632277
0.00600923
0.0054678
0.00504846
0.00570192
0.00970476
0.0148845
0.0193184
0.0227868
0.0254589
0.0274625
0.0289344
0.0300821
0.0309044
0.0314841
0.0319088
0.0321919
0.0323391
0.032443
0.0324286
0.0325181
0.032507
0.0325203
0.0325062
0.0325981
0.0325634
0.0325858
0.0325274
0.03252
0.0324972
0.0324911
0.0324119
0.0322556
0.0322175
0.0321776
0.032168
0.0321419
0.032146
0.0321409
0.032086
0.0320148
0.0319159
0.0318515
0.0318112
0.0318395
0.0318579
0.0318633
0.0318084
0.0318016
0.0317949
0.0318885
0.0318504
0.0319869
0.0320326
0.0319899
0.0320912
0.0320865
0.0321035
0.0321322
0.0320569
0.0321328
0.0321213
0.032071
0.0321552
0.0321425
0.0320904
0.0321735
0.0321563
0.0320832
6.57031
2.51366
1.19098
0.656633
0.403466
0.268314
0.189315
0.139781
0.106953
0.0842066
0.0678622
0.0557584
0.0465648
0.0394293
0.0337875
0.0292543
0.0255601
0.0225119
0.019969
0.0178262
0.0160047
0.014444
0.0130969
0.0119258
0.0109025
0.0100034
0.00920951
0.00849986
0.00787137
0.00732388
0.0067894
0.00632463
0.00601033
0.00552226
0.0050317
0.00540645
0.00875371
0.0138037
0.0182756
0.0218561
0.0246549
0.0267876
0.0283763
0.0296221
0.0305296
0.0311809
0.0316672
0.0320069
0.032206
0.0323354
0.0323448
0.0324354
0.0324326
0.0324357
0.0324184
0.0325129
0.0324743
0.032506
0.0324298
0.0324377
0.0324221
0.0324256
0.0323605
0.0322341
0.0321762
0.0321408
0.0321243
0.0320874
0.0320959
0.0320999
0.0320515