/*--------------------------------*- C++ -*----------------------------------*\
| =========                 |                                                 |
| \\      /  F ield         | OpenFOAM: The Open Source CFD Toolbox           |
|  \\    /   O peration     | Version:  3.0.0                                 |
|   \\  /    A nd           | Web:      www.OpenFOAM.org                      |
|    \\/     M anipulation  |                                                 |
\*---------------------------------------------------------------------------*/
FoamFile
{
    version     2.0;
    format      ascii;
    class       volScalarField;
    location    "100";
    object      k;
}
// * * * * * * * * * * * * * * * * * * * * * * * * * * * * * * * * * * * * * //

dimensions      [0 2 -2 0 0 0 0];

internalField   nonuniform List<scalar> 
10000
(
0.125894
0.0496763
0.0289791
0.0207028
0.0164963
0.0140197
0.012414
0.0113006
0.0104891
0.0098738
0.00939208
0.00900512
0.0086865
0.00841894
0.00819087
0.00799367
0.00782133
0.00766897
0.00753316
0.00741119
0.00730103
0.0072007
0.00710838
0.00702399
0.00694574
0.00687229
0.0068036
0.00674119
0.00667965
0.00662246
0.00656451
0.00651901
0.00647148
0.00642262
0.00642709
0.00692264
0.00871637
0.00999353
0.0106727
0.0109959
0.0111514
0.011234
0.0112797
0.0113031
0.011321
0.0113238
0.0113259
0.011321
0.0113197
0.0113131
0.0113166
0.0113136
0.0113142
0.0113152
0.0113097
0.0113006
0.0112922
0.0112729
0.0112422
0.0111893
0.011165
0.0111136
0.0111088
0.0111079
0.0111025
0.0111059
0.0111039
0.0111104
0.0111109
0.0110894
0.0110686
0.0110714
0.0111101
0.0111582
0.0111748
0.011174
0.0111831
0.0111955
0.0111952
0.011197
0.0111912
0.0111913
0.0112139
0.011236
0.0112425
0.0112447
0.0112481
0.0112479
0.0112391
0.0112346
0.0112357
0.0112355
0.0112284
0.0112287
0.01123
0.011227
0.0112243
0.0112208
0.0112166
0.0112091
0.182597
0.080367
0.0456639
0.030577
0.0227209
0.0180864
0.0151012
0.0130551
0.0115888
0.0105023
0.0096773
0.00903932
0.00853583
0.00813445
0.00781179
0.00755006
0.00733603
0.00715982
0.0070134
0.00689165
0.00678891
0.00670191
0.00662589
0.00656304
0.00650589
0.00645441
0.00640959
0.00637377
0.0063335
0.00629557
0.0062651
0.00624517
0.00618337
0.00613538
0.00628537
0.00865986
0.0122799
0.0140649
0.0147417
0.0149209
0.0149542
0.0149484
0.0149214
0.0148887
0.0148692
0.0148314
0.0148084
0.0147806
0.0147645
0.0147286
0.0147444
0.0147221
0.0147286
0.0147276
0.0147302
0.0147183
0.0146945
0.0146602
0.0145915
0.0144915
0.0144561
0.014343
0.0143438
0.0143659
0.0143413
0.0143583
0.0143569
0.0143658
0.01437
0.0143207
0.0142882
0.0143069
0.0144302
0.014512
0.014519
0.014504
0.0145417
0.0145657
0.0145493
0.0145572
0.0145294
0.0145349
0.0146131
0.0146488
0.0146446
0.0146449
0.0146526
0.0146398
0.0146116
0.0146106
0.0146163
0.0146072
0.014587
0.0145905
0.0145966
0.0145956
0.0145898
0.0145808
0.0145718
0.0145476
0.206285
0.098279
0.0570059
0.0379669
0.0277762
0.0216837
0.0177276
0.0149955
0.01302
0.0115406
0.010402
0.00950647
0.00879172
0.00821452
0.00774243
0.00735254
0.00702904
0.00675981
0.00653441
0.00634619
0.00618801
0.00605539
0.00594179
0.0058498
0.00577023
0.00570087
0.00564369
0.0056026
0.00555816
0.00551746
0.00549004
0.00548274
0.00542617
0.00540539
0.00556113
0.00896265
0.0135956
0.0159643
0.0169791
0.0173542
0.017497
0.0175391
0.0175436
0.0175234
0.0175234
0.0174897
0.0174683
0.0174529
0.0174254
0.0173943
0.0174009
0.0173901
0.017411
0.0173981
0.0174077
0.0173932
0.0173592
0.01731
0.0172194
0.0170984
0.0170543
0.016907
0.0169078
0.0169427
0.0169088
0.016935
0.0169296
0.0169376
0.0169307
0.0168696
0.0168431
0.0168761
0.0170315
0.0171043
0.0171385
0.017108
0.0171626
0.0171872
0.0171693
0.0171825
0.0171444
0.0171623
0.0172637
0.0172873
0.0172914
0.017296
0.0172923
0.0172863
0.0172486
0.0172487
0.0172425
0.0172447
0.0172187
0.017222
0.0172297
0.0172287
0.0172242
0.0172144
0.0171906
0.017168
0.218873
0.109943
0.0652572
0.0437228
0.0319119
0.0247564
0.0200762
0.0168294
0.0144725
0.0126998
0.0113287
0.0102436
0.0093697
0.00865518
0.00806462
0.00757204
0.00715778
0.00680792
0.00650982
0.00625568
0.00603812
0.00585217
0.00569045
0.00555585
0.00543878
0.00533523
0.00524843
0.00518319
0.00511675
0.00505413
0.00501531
0.00499826
0.00491707
0.00489807
0.00512278
0.00952728
0.0147215
0.0174392
0.018687
0.0192092
0.0194495
0.0195662
0.0196073
0.0195916
0.0195966
0.0195702
0.0195532
0.0195526
0.0195088
0.0194996
0.019509
0.0194979
0.0195239
0.0195036
0.0195182
0.0194998
0.0194577
0.0193962
0.0192906
0.0191608
0.0191076
0.0189433
0.0189449
0.0189841
0.0189468
0.0189893
0.018971
0.018983
0.0189633
0.0188809
0.0188765
0.0189188
0.0190887
0.0191581
0.0192033
0.0191632
0.0192287
0.0192475
0.0192367
0.0192387
0.0192104
0.0192399
0.0193522
0.0193717
0.0193753
0.0193897
0.0193803
0.0193675
0.0193261
0.0193272
0.0193219
0.0193234
0.0192963
0.0192999
0.0193051
0.0193039
0.0192985
0.0192902
0.0192539
0.0192378
0.226011
0.117858
0.0714244
0.0483002
0.0353424
0.0273851
0.022137
0.0184775
0.0158114
0.0138003
0.0122404
0.0110022
0.0100012
0.00917913
0.00849552
0.00792123
0.00743441
0.00701881
0.00666109
0.00635316
0.00608645
0.00585513
0.00565089
0.00547692
0.0053237
0.00518573
0.00506769
0.00497459
0.00488114
0.00479141
0.00473664
0.00470025
0.00458658
0.00455829
0.00495025
0.0103225
0.0158096
0.0187242
0.0201254
0.0207563
0.0210716
0.0212468
0.0213249
0.0213302
0.0213262
0.0213065
0.0213
0.0213025
0.0212655
0.0212653
0.0212627
0.0212714
0.0212909
0.0212681
0.0212841
0.0212639
0.0212119
0.0211426
0.0210252
0.0208924
0.020831
0.0206577
0.0206596
0.020699
0.0206611
0.0207095
0.0206885
0.020712
0.0206709
0.0205761
0.0205894
0.0206387
0.0208156
0.0208831
0.0209291
0.0208874
0.0209606
0.0209668
0.0209753
0.0209643
0.0209432
0.0209845
0.0211013
0.0211217
0.0211231
0.0211303
0.0211363
0.0211102
0.021066
0.0210698
0.0210685
0.0210649
0.0210397
0.0210428
0.0210436
0.0210429
0.0210362
0.0210293
0.0209867
0.0209746
0.230064
0.123241
0.0760293
0.0519315
0.0381802
0.0296268
0.0239363
0.0199444
0.0170239
0.0148141
0.0130955
0.0117283
0.0106202
0.00970786
0.00894671
0.00830479
0.00775826
0.00728947
0.00688356
0.00653153
0.00622418
0.00595475
0.00571554
0.00550901
0.00532551
0.0051579
0.00501261
0.00489433
0.00477521
0.00466025
0.00459002
0.00453002
0.00439159
0.00434032
0.00501837
0.0112517
0.0168638
0.0198873
0.0213935
0.0221088
0.0224844
0.0227086
0.0228227
0.02286
0.0228494
0.0228363
0.0228389
0.022841
0.0228059
0.0228117
0.0228044
0.0228301
0.0228356
0.0228122
0.022824
0.0228083
0.0227455
0.0226706
0.0225436
0.022411
0.0223423
0.0221635
0.0221658
0.0222022
0.0221656
0.0222164
0.0221954
0.0222201
0.0221703
0.0220641
0.0220924
0.022148
0.0223281
0.0223949
0.0224364
0.0223982
0.0224766
0.0224796
0.0224845
0.0224805
0.0224617
0.0225138
0.0226305
0.0226582
0.0226547
0.0226594
0.0226627
0.0226398
0.0225881
0.0225963
0.0226011
0.0225889
0.0225679
0.0225698
0.0225646
0.0225653
0.0225574
0.0225515
0.0225072
0.0224966
0.232309
0.126851
0.0794239
0.0547775
0.040502
0.0315198
0.0254925
0.0212378
0.0181106
0.0157358
0.0138837
0.0124067
0.011207
0.0102173
0.00938964
0.0086899
0.00809245
0.00757846
0.00713188
0.00674282
0.00640175
0.00610101
0.00583268
0.00559875
0.00538949
0.00519717
0.00502937
0.00488997
0.00474845
0.00461212
0.00452871
0.00444666
0.00428348
0.00422013
0.00526531
0.0122202
0.0178681
0.0209546
0.0225386
0.0233237
0.0237512
0.0240188
0.024168
0.0242311
0.0242275
0.0242208
0.0242267
0.0242301
0.0241953
0.0242041
0.024196
0.0242293
0.024225
0.024203
0.0242099
0.0242004
0.0241269
0.0240478
0.0239129
0.0237826
0.0237066
0.0235246
0.0235271
0.0235569
0.023524
0.0235753
0.0235552
0.0235769
0.0235252
0.0234078
0.0234478
0.0235095
0.0236912
0.023759
0.0237901
0.0237615
0.0238428
0.0238465
0.0238496
0.0238486
0.023832
0.0238922
0.0240064
0.0240352
0.0240382
0.0240269
0.0240389
0.0240116
0.0239611
0.0239728
0.0239871
0.0239631
0.0239476
0.0239486
0.0239366
0.0239377
0.0239287
0.0239237
0.0238797
0.0238697
0.233504
0.129218
0.0818787
0.0569701
0.0423724
0.033096
0.0268218
0.0223651
0.0190736
0.0165644
0.0146013
0.0130318
0.0117541
0.0106977
0.00981274
0.00906297
0.00842144
0.00786829
0.00738661
0.00696568
0.00659567
0.00626818
0.00597512
0.00571814
0.00548739
0.00527416
0.0050872
0.00492978
0.00476916
0.00461526
0.00452101
0.00442002
0.00423156
0.00416881
0.00562733
0.0131524
0.0188084
0.0219384
0.0235865
0.0244331
0.0249082
0.0252158
0.0253992
0.0254866
0.0254982
0.0254976
0.0255003
0.0255074
0.0254727
0.0254834
0.0254761
0.0255119
0.0254938
0.0254827
0.0254861
0.0254803
0.0253969
0.0253145
0.0251732
0.0250465
0.0249616
0.0247802
0.0247826
0.0247995
0.024775
0.0248249
0.0248056
0.0248227
0.0247719
0.0246459
0.0246958
0.0247614
0.0249437
0.0250154
0.0250428
0.0250149
0.0250993
0.025106
0.0251065
0.0251075
0.025093
0.0251593
0.0252702
0.0252975
0.0253026
0.0252877
0.0253012
0.0252732
0.0252236
0.0252395
0.0252537
0.0252305
0.0252197
0.0252046
0.0252
0.0251998
0.02519
0.0251858
0.0251431
0.025133
0.234105
0.130725
0.0836122
0.0586251
0.0438519
0.0343871
0.0279403
0.0233344
0.0199163
0.0173003
0.0152469
0.0136008
0.0122574
0.0111445
0.0102103
0.00941732
0.00873755
0.00815033
0.00763808
0.00718938
0.00679418
0.00644345
0.00612899
0.00585208
0.00560286
0.0053717
0.00516852
0.00499594
0.00481876
0.00464983
0.00454646
0.00442984
0.00421412
0.00416581
0.00605668
0.0139865
0.0196746
0.0228446
0.0245516
0.0254564
0.0259771
0.0263235
0.0265389
0.0266503
0.0266873
0.026691
0.0266846
0.0266974
0.0266633
0.0266768
0.0266699
0.0267031
0.0266812
0.0266755
0.0266777
0.0266734
0.0265815
0.0264965
0.02635
0.0262277
0.0261322
0.0259554
0.0259585
0.0259608
0.0259421
0.0259891
0.0259721
0.0259813
0.0259323
0.0258041
0.025861
0.0259283
0.0261109
0.0261876
0.0262167
0.0261839
0.0262712
0.0262835
0.0262791
0.0262815
0.0262693
0.0263408
0.0264494
0.0264741
0.0264766
0.0264655
0.0264757
0.0264499
0.0264012
0.0264229
0.0264293
0.0264055
0.0263979
0.0263801
0.0263782
0.0263769
0.0263665
0.0263631
0.0263223
0.0263117
0.234384
0.131651
0.0848032
0.0598453
0.0449985
0.0354254
0.0288661
0.0241553
0.0206435
0.0179456
0.0158208
0.0141126
0.0127151
0.0115549
0.010579
0.00974909
0.00903641
0.00841966
0.00788082
0.0074079
0.00699069
0.00661964
0.00628648
0.00599214
0.00572683
0.00548008
0.00526279
0.00507713
0.00488574
0.00470401
0.00459289
0.00446243
0.00422607
0.00418451
0.00648782
0.0147265
0.0204613
0.0236761
0.0254426
0.0264054
0.0269717
0.027357
0.0276035
0.0277395
0.0277989
0.0278029
0.0278014
0.0278167
0.0277839
0.0278043
0.0277945
0.027822
0.0278026
0.027799
0.0278005
0.0277967
0.027698
0.0276111
0.0274607
0.0273429
0.0272357
0.0270672
0.0270599
0.0270594
0.0270419
0.027082
0.0270728
0.0270758
0.0270203
0.0269
0.0269599
0.0270269
0.0272098
0.0272914
0.0273178
0.0272858
0.0273754
0.0273967
0.0273833
0.0273874
0.0273778
0.0274538
0.0275612
0.0275823
0.0275776
0.0275788
0.0275782
0.0275564
0.0275116
0.0275423
0.0275347
0.0275069
0.0275005
0.0274896
0.0274884
0.0274856
0.0274748
0.0274732
0.0274341
0.0274227
0.234498
0.132197
0.0855958
0.0607217
0.0458671
0.0362439
0.0296186
0.0248391
0.0212616
0.0185033
0.0163241
0.0145672
0.0131263
0.0119273
0.0109168
0.0100558
0.00931523
0.0086732
0.00811143
0.0076175
0.00718113
0.00679234
0.0064428
0.00613317
0.00585379
0.00559342
0.00536367
0.00516662
0.00496296
0.00476994
0.00465197
0.00450967
0.00425651
0.00421956
0.00688229
0.0153699
0.0211641
0.0244339
0.0262644
0.0272873
0.0279008
0.0283261
0.0286041
0.0287656
0.0288459
0.0288575
0.0288599
0.028877
0.0288463
0.0288795
0.0288614
0.0288798
0.0288685
0.0288648
0.0288659
0.0288617
0.0287585
0.0286702
0.0285168
0.0284034
0.0282841
0.0281284
0.0280995
0.0281032
0.0280865
0.0281294
0.0281183
0.0281182
0.0280507
0.027944
0.0280034
0.0280687
0.0282522
0.0283391
0.0283585
0.0283322
0.0284238
0.028445
0.0284317
0.028437
0.0284302
0.0285104
0.0286171
0.028633
0.0286287
0.028634
0.0286208
0.0286094
0.0285656
0.0286008
0.0285885
0.0285563
0.0285505
0.0285432
0.0285423
0.0285376
0.0285263
0.0285277
0.0284901
0.0284779
0.234533
0.132502
0.0861042
0.0613327
0.0465088
0.036875
0.0302184
0.0253987
0.0217785
0.0189782
0.0167593
0.0149656
0.0134909
0.0122612
0.0112226
0.0103361
0.00957222
0.00890888
0.00832761
0.00781568
0.00736277
0.00695861
0.00659481
0.00627179
0.00598013
0.00570784
0.00546704
0.00526003
0.00504583
0.00484268
0.00471841
0.0045662
0.00429876
0.00426542
0.0072159
0.015911
0.0217796
0.0251179
0.0270194
0.0281067
0.0287701
0.0292369
0.029548
0.029736
0.0298372
0.0298609
0.0298687
0.0298869
0.0298587
0.0298995
0.0298802
0.0298834
0.0298868
0.0298813
0.0298818
0.029877
0.0297716
0.0296823
0.029527
0.0294175
0.0292864
0.0291491
0.0290956
0.0290994
0.0290841
0.0291276
0.0291178
0.0291156
0.0290335
0.028944
0.0289989
0.0290621
0.0292466
0.0293405
0.0293509
0.0293308
0.0294244
0.0294378
0.0294316
0.0294391
0.029435
0.0295191
0.0296255
0.029633
0.0296371
0.0296381
0.0296231
0.0296155
0.0295718
0.0296099
0.0295962
0.0295604
0.0295545
0.0295493
0.0295484
0.0295412
0.0295285
0.0295352
0.0294989
0.0294856
0.234535
0.132661
0.0864165
0.0617446
0.0469697
0.0373499
0.0306863
0.0258478
0.0222031
0.019376
0.01713
0.0153099
0.01381
0.0125566
0.011496
0.0105891
0.00980627
0.00912535
0.00852781
0.00800068
0.00753369
0.0071164
0.00674031
0.00640565
0.00610334
0.00582072
0.00557007
0.00535436
0.00513123
0.00491885
0.00478859
0.00462846
0.00434843
0.00431749
0.00747248
0.016344
0.0223041
0.0257267
0.0277085
0.0288659
0.0295832
0.0300935
0.0304401
0.0306559
0.0307789
0.0308192
0.0308344
0.0308525
0.0308274
0.0308724
0.0308554
0.030849
0.0308619
0.0308544
0.0308545
0.0308487
0.0307434
0.0306536
0.0304973
0.0303911
0.0302491
0.0301256
0.0300546
0.0300543
0.030041
0.0300845
0.0300757
0.0300717
0.0299763
0.0299058
0.0299519
0.0300136
0.0301993
0.030304
0.0303044
0.0302875
0.0303831
0.0303922
0.0303882
0.0304001
0.0303984
0.0304866
0.0305924
0.0305971
0.0306089
0.0305969
0.0305895
0.0305822
0.0305364
0.0305767
0.0305628
0.0305242
0.0305179
0.0305145
0.0305128
0.0305014
0.030487
0.030502
0.0304666
0.0304522
0.234526
0.132735
0.0865979
0.0620117
0.0472906
0.037698
0.0310428
0.0262009
0.0225454
0.0197036
0.0174406
0.0156029
0.0140853
0.0128146
0.0117374
0.0108147
0.0100169
0.00932179
0.00871099
0.00817131
0.00769256
0.00726423
0.00687768
0.00653302
0.00622159
0.00593011
0.00567072
0.00544744
0.0052169
0.00499608
0.00485993
0.00469401
0.00440263
0.00437248
0.0076418
0.016664
0.0227343
0.0262585
0.0283315
0.0295658
0.030342
0.0308986
0.0312833
0.0315287
0.0316754
0.0317383
0.0317623
0.0317785
0.0317571
0.0318013
0.0317908
0.0317783
0.0317975
0.0317887
0.0317886
0.031782
0.0316785
0.0315888
0.0314322
0.0313285
0.0311771
0.031064
0.0309801
0.0309735
0.0309618
0.0310052
0.0309968
0.0309916
0.0308843
0.0308339
0.0308657
0.0309279
0.0311155
0.0312242
0.0312229
0.031207
0.0313046
0.0313123
0.0313079
0.0313249
0.0313253
0.0314175
0.0315225
0.0315265
0.031539
0.0315139
0.0315123
0.0315166
0.0314641
0.0315064
0.0314925
0.031452
0.031445
0.0314436
0.0314404
0.0314209
0.0314141
0.0314324
0.0313979
0.0313822
0.234514
0.132762
0.0866956
0.0621767
0.0475059
0.0379454
0.0313075
0.0264721
0.0228158
0.0199682
0.0176965
0.0158482
0.0143193
0.0130367
0.0119476
0.0110132
0.0102039
0.00949789
0.0088766
0.00832681
0.00783846
0.00740103
0.00700578
0.00665264
0.00633354
0.00603458
0.0057675
0.00553768
0.00530116
0.0050726
0.00493059
0.00476098
0.0044592
0.00442789
0.00771843
0.0168671
0.0230665
0.0267108
0.028887
0.0302064
0.0310471
0.0316535
0.0320796
0.0323566
0.0325295
0.0326104
0.0326526
0.0326681
0.0326511
0.0327021
0.0326893
0.0326738
0.0326967
0.0326875
0.0326876
0.0326801
0.0325805
0.0324911
0.032335
0.0322331
0.0320741
0.0319669
0.0318762
0.0318624
0.0318499
0.031893
0.0318847
0.0318791
0.0317601
0.0317319
0.0317424
0.0318089
0.031999
0.0321066
0.0321099
0.0320931
0.0321926
0.0322029
0.0321946
0.0322176
0.0322193
0.0323151
0.0324194
0.0324233
0.0324325
0.032402
0.0324045
0.0324131
0.0323598
0.0324028
0.0323888
0.0323472
0.0323393
0.0323407
0.032335
0.032312
0.0323101
0.03233
0.0322963
0.0322793
0.234505
0.132765
0.086742
0.0622725
0.0476443
0.0381154
0.0314984
0.0266752
0.0230244
0.0201776
0.0179033
0.0160502
0.0145149
0.013225
0.012128
0.0111854
0.010368
0.00965373
0.00902445
0.00846679
0.00797083
0.00752612
0.00712379
0.0067636
0.00643816
0.00613304
0.00585924
0.00562382
0.00538269
0.00514708
0.00499921
0.00482797
0.00451667
0.00448201
0.00770119
0.0169497
0.0232972
0.0270806
0.0293731
0.0307865
0.0316984
0.0323587
0.0328298
0.0331409
0.0333428
0.0334406
0.0335028
0.0335233
0.0335123
0.0335656
0.0335549
0.033537
0.0335626
0.0335535
0.0335541
0.0335461
0.0334516
0.0333633
0.0332082
0.0331074
0.0329426
0.0328374
0.032747
0.0327242
0.032708
0.0327508
0.0327423
0.032737
0.0326152
0.032599
0.0325902
0.0326601
0.0328526
0.0329532
0.0329689
0.0329485
0.03305
0.0330684
0.0330511
0.0330818
0.0330832
0.0331823
0.0332858
0.0332898
0.0332936
0.033263
0.0332673
0.0332776
0.0332256
0.0332687
0.0332544
0.0332128
0.0332035
0.0332094
0.0331995
0.033175
0.0331768
0.0331973
0.0331647
0.033146
0.234498
0.132758
0.0867586
0.0623231
0.0477284
0.0382275
0.0316316
0.0268231
0.0231816
0.0203397
0.0180672
0.0162133
0.0146755
0.0133819
0.0122804
0.0113327
0.0105098
0.0097898
0.00915476
0.00859123
0.00808944
0.0076391
0.00723121
0.00686528
0.00653474
0.00622469
0.0059451
0.00570494
0.00546046
0.00521849
0.0050648
0.0048938
0.00457392
0.00453353
0.0075928
0.0169091
0.0234226
0.0273645
0.0297871
0.0313044
0.0322947
0.0330141
0.0335339
0.0338822
0.0341162
0.0342316
0.0343158
0.0343459
0.0343427
0.0343966
0.034388
0.0343696
0.0343973
0.0343887
0.03439
0.0343821
0.0342939
0.0342071
0.0340537
0.0339535
0.0337844
0.0336782
0.0335856
0.0335636
0.0335385
0.033581
0.0335719
0.0335676
0.0334502
0.033431
0.033414
0.0334843
0.0336782
0.0337761
0.033803
0.0337751
0.0338792
0.033902
0.0338805
0.0339206
0.0339192
0.0340213
0.0341239
0.0341277
0.0341256
0.034098
0.0341025
0.0341132
0.0340635
0.0341063
0.0340914
0.034051
0.0340399
0.0340533
0.0340358
0.0340111
0.034016
0.0340363
0.0340051
0.0339846
0.234493
0.132746
0.0867589
0.0623456
0.0477756
0.0382976
0.031721
0.0269273
0.0232967
0.0204622
0.0181941
0.0163425
0.0148051
0.0135106
0.0124071
0.0114567
0.0106305
0.00990694
0.00926803
0.00870039
0.00819436
0.00773987
0.00732777
0.00695731
0.00662278
0.00630897
0.00602446
0.00578032
0.00553365
0.00528608
0.00512666
0.00495748
0.00463038
0.00458151
0.0074002
0.0167428
0.0234387
0.0275586
0.0301259
0.0317578
0.0328345
0.0336185
0.0341915
0.0345805
0.0348499
0.0349847
0.0350928
0.0351376
0.0351443
0.0351973
0.0351902
0.0351729
0.0352025
0.0351947
0.0351971
0.0351896
0.0351087
0.0350239
0.0348728
0.0347729
0.0346008
0.0344912
0.0343965
0.0343772
0.0343434
0.0343852
0.0343752
0.0343723
0.0342671
0.034243
0.0342133
0.0342834
0.0344777
0.0345746
0.0346067
0.0345752
0.034682
0.0347073
0.0346841
0.0347373
0.0347286
0.0348341
0.0349353
0.0349386
0.0349295
0.0349082
0.0349116
0.0349216
0.0348752
0.0349172
0.0349017
0.0348643
0.03485
0.0348649
0.0348467
0.0348214
0.034829
0.0348481
0.0348192
0.0347964
0.234489
0.132734
0.0867512
0.0623514
0.0477988
0.0383385
0.031778
0.026998
0.0233783
0.0205521
0.01829
0.0164424
0.0149074
0.013614
0.0125106
0.0115594
0.0107318
0.0100063
0.00936508
0.00879483
0.00828592
0.00782856
0.00741347
0.00703956
0.00670203
0.00638552
0.00609694
0.00584946
0.00560164
0.00534928
0.00518431
0.00501808
0.00468611
0.00462467
0.0071349
0.0164475
0.0233417
0.027659
0.030386
0.0321438
0.0333156
0.0341707
0.0348014
0.0352352
0.0355434
0.0357007
0.0358333
0.0358996
0.0359187
0.0359689
0.0359629
0.0359483
0.0359798
0.0359728
0.0359765
0.0359699
0.0358969
0.0358148
0.0356666
0.0355668
0.0353927
0.0352783
0.0351824
0.0351637
0.0351245
0.0351646
0.0351537
0.0351525
0.0350584
0.0350332
0.0349898
0.0350593
0.0352526
0.0353488
0.0353829
0.0353502
0.0354593
0.0354866
0.0354629
0.0355248
0.0355135
0.0356219
0.0357213
0.0357237
0.0357051
0.0356953
0.0356967
0.0357035
0.035662
0.0357027
0.0356868
0.0356549
0.0356351
0.0356466
0.0356338
0.0356073
0.0356177
0.0356337
0.0356089
0.035583
0.234486
0.132722
0.0867401
0.062348
0.047807
0.0383597
0.031812
0.0270437
0.023434
0.020616
0.0183605
0.0165178
0.0149864
0.0136954
0.0125935
0.0116429
0.0108153
0.0100891
0.00944696
0.00887533
0.00836469
0.00790556
0.00748853
0.00711211
0.00677245
0.00645418
0.00616232
0.00591203
0.00566399
0.00540776
0.00523732
0.00507473
0.00474255
0.00466019
0.00681367
0.0160183
0.0231276
0.0276612
0.0305635
0.0324592
0.0337353
0.0346685
0.0353622
0.0358452
0.0361958
0.0363799
0.0365375
0.0366339
0.0366678
0.0367121
0.0367074
0.0366965
0.03673
0.0367239
0.0367294
0.0367239
0.0366592
0.0365804
0.0364357
0.0363361
0.0361609
0.0360408
0.0359452
0.0359256
0.0358828
0.0359201
0.0359082
0.0359094
0.0358267
0.0357996
0.0357447
0.0358129
0.0360042
0.0360992
0.0361338
0.0361008
0.0362122
0.0362412
0.0362179
0.0362866
0.0362748
0.0363861
0.0364829
0.0364844
0.0364613
0.0364549
0.0364615
0.0364582
0.0364251
0.0364638
0.036448
0.0364255
0.0363961
0.0364042
0.0363982
0.0363693
0.036384
0.0363932
0.0363761
0.0363452
0.234484
0.132711
0.086728
0.06234
0.0478064
0.0383682
0.0318302
0.0270713
0.0234702
0.0206598
0.0184106
0.0165732
0.0150459
0.0137581
0.0126585
0.0117095
0.0108828
0.010157
0.00951491
0.00894288
0.00843145
0.00797142
0.00755336
0.00717525
0.00683416
0.00651498
0.00622057
0.00596786
0.00572042
0.00546137
0.00528516
0.00512673
0.00480384
0.0046795
0.00646239
0.0154455
0.0227927
0.0275609
0.0306541
0.0327002
0.0340907
0.0351095
0.0358721
0.0364091
0.0368057
0.0370218
0.0372056
0.0373301
0.0373847
0.0374264
0.0374253
0.0374186
0.037454
0.0374487
0.0374564
0.0374525
0.0373958
0.0373212
0.0371807
0.0370815
0.0369059
0.0367801
0.0366861
0.0366644
0.0366196
0.0366519
0.0366394
0.0366432
0.036573
0.0365441
0.0364783
0.0365454
0.0367335
0.0368261
0.0368606
0.0368281
0.0369413
0.0369726
0.03695
0.0370244
0.0370135
0.0371273
0.0372207
0.0372216
0.0371966
0.0371927
0.0372081
0.0371903
0.0371649
0.037201
0.0371866
0.0371683
0.037135
0.0371422
0.0371412
0.0371082
0.0371305
0.0371254
0.0371219
0.037084
0.234483
0.132702
0.0867161
0.06233
0.047801
0.038369
0.031838
0.0270863
0.0234922
0.0206883
0.0184449
0.0166125
0.0150895
0.0138051
0.0127083
0.0117615
0.0109364
0.0102117
0.0095703
0.00899862
0.00848711
0.0080269
0.00760853
0.0072294
0.00688745
0.00656808
0.00627184
0.00601696
0.0057708
0.00551013
0.00532706
0.00517479
0.0048582
0.00470106
0.00611327
0.0147261
0.0223344
0.0273537
0.0306534
0.0328629
0.0343783
0.0354911
0.0363287
0.0369251
0.0373717
0.0376254
0.0378372
0.0379901
0.0380671
0.0381107
0.0381187
0.0381149
0.0381523
0.0381481
0.0381581
0.0381561
0.0381069
0.0380373
0.037902
0.0378035
0.0376281
0.0374971
0.037406
0.0373815
0.0373359
0.0373598
0.037348
0.037354
0.0372965
0.0372669
0.0371912
0.0372573
0.0374413
0.0375303
0.0375644
0.0375328
0.0376473
0.0376814
0.0376598
0.0377397
0.0377302
0.0378465
0.0379349
0.0379359
0.0379107
0.0379089
0.0379286
0.0379037
0.0378819
0.0379144
0.037904
0.0378859
0.0378522
0.0378601
0.0378644
0.0378245
0.0378496
0.0378401
0.0378434
0.0378004
0.234481
0.132693
0.0867049
0.0623196
0.0477933
0.0383654
0.0318392
0.0270929
0.0235043
0.0207056
0.0184672
0.0166392
0.0151202
0.0138393
0.0127454
0.011801
0.0109779
0.0102548
0.00961459
0.00904378
0.00853273
0.00807285
0.00765474
0.00727515
0.00693279
0.00661379
0.00631637
0.00605947
0.00581516
0.00555411
0.00536291
0.00521793
0.00490803
0.00472313
0.00577943
0.0138873
0.0217515
0.0270352
0.0305567
0.0329429
0.0345943
0.03581
0.0367296
0.0373911
0.0378919
0.0381889
0.0384314
0.0386137
0.038715
0.0387653
0.0387891
0.038786
0.0388254
0.0388226
0.0388347
0.038835
0.0387922
0.0387288
0.0385996
0.0385023
0.0383277
0.0381927
0.0381047
0.0380776
0.0380332
0.0380433
0.0380347
0.0380428
0.0379969
0.037967
0.0378838
0.0379489
0.038128
0.0382122
0.0382457
0.0382152
0.0383308
0.0383683
0.038348
0.0384336
0.0384257
0.0385442
0.0386253
0.0386285
0.0386035
0.0386039
0.0386256
0.0385973
0.038577
0.038603
0.0386026
0.0385792
0.0385481
0.0385576
0.038567
0.0385188
0.038543
0.038535
0.0385372
0.0384957
0.23448
0.132685
0.0866946
0.0623094
0.0477846
0.0383594
0.0318366
0.0270941
0.0235096
0.020715
0.0184807
0.0166565
0.0151411
0.0138633
0.0127722
0.0118303
0.0110093
0.010288
0.00964926
0.00907964
0.00856941
0.00811022
0.00769279
0.00731319
0.00697072
0.00665255
0.00635455
0.0060957
0.00585358
0.00559327
0.00539362
0.00525463
0.00495499
0.00474473
0.00547767
0.0129522
0.021044
0.0266013
0.0303592
0.0329357
0.0347347
0.0360628
0.0370717
0.0378046
0.0383644
0.0387104
0.0389871
0.0392001
0.039328
0.0393908
0.0394377
0.0394319
0.0394742
0.039473
0.0394867
0.0394892
0.0394512
0.0393955
0.0392738
0.039178
0.039005
0.0388674
0.0387817
0.0387531
0.038713
0.0387009
0.0387004
0.0387101
0.0386738
0.0386436
0.0385564
0.0386207
0.0387938
0.0388724
0.0389051
0.0388761
0.0389924
0.0390339
0.039015
0.0391065
0.0391006
0.039221
0.0392904
0.0393011
0.039275
0.0392781
0.0393006
0.0392706
0.0392508
0.039275
0.0392835
0.0392481
0.0392232
0.0392346
0.0392454
0.039192
0.0392106
0.0392108
0.0392062
0.0391701
0.234479
0.132678
0.0866851
0.0622997
0.047776
0.0383524
0.0318319
0.027092
0.0235105
0.0207191
0.0184879
0.0166669
0.0151544
0.0138794
0.0127909
0.0118514
0.0110324
0.0103128
0.00967575
0.0091075
0.00859831
0.00814003
0.00772357
0.00734429
0.0070019
0.00668487
0.00638683
0.00612607
0.00588629
0.00562776
0.00542008
0.00528332
0.00500154
0.00476517
0.00522526
0.0119418
0.0202135
0.0260485
0.0300562
0.0328366
0.0347952
0.0362456
0.037352
0.038163
0.0387868
0.0391875
0.0395027
0.0397483
0.039905
0.0399864
0.0400538
0.040054
0.0400996
0.0400994
0.0401141
0.0401186
0.0400852
0.0400366
0.0399245
0.0398307
0.0396602
0.0395215
0.0394371
0.0394075
0.0393658
0.0393422
0.0393449
0.0393563
0.0393266
0.0392975
0.039209
0.0392731
0.0394393
0.0395111
0.039543
0.0395156
0.0396324
0.0396785
0.0396611
0.0397579
0.0397553
0.0398774
0.0399378
0.0399561
0.0399252
0.0399319
0.0399541
0.0399236
0.0399036
0.0399277
0.0399419
0.0398921
0.0398781
0.0398899
0.0399006
0.0398445
0.0398613
0.0398575
0.0398581
0.0398228
0.234477
0.132672
0.0866765
0.0622908
0.0477676
0.0383451
0.0318261
0.0270881
0.0235087
0.0207196
0.0184908
0.0166722
0.0151622
0.0138896
0.0128033
0.0118658
0.0110488
0.0103309
0.00969544
0.00912861
0.00862056
0.00816327
0.00774794
0.00736923
0.00702704
0.00671132
0.00641374
0.00615109
0.00591352
0.00565785
0.00544253
0.00530565
0.00504746
0.00478344
0.00503449
0.0108773
0.0192625
0.0253735
0.0296431
0.0326407
0.0347713
0.0363546
0.0375668
0.0384632
0.0391567
0.0396179
0.0399764
0.0402573
0.0404451
0.0405498
0.0406375
0.0406521
0.0407012
0.0407019
0.0407174
0.0407226
0.0406957
0.0406515
0.0405515
0.0404603
0.0402935
0.0401549
0.0400708
0.0400396
0.0399915
0.0399648
0.0399701
0.0399814
0.0399541
0.0399291
0.0398419
0.0399063
0.0400643
0.0401288
0.0401596
0.0401345
0.0402514
0.0403026
0.0402866
0.0403881
0.0403904
0.0405137
0.0405657
0.0405882
0.0405552
0.0405654
0.0405863
0.0405566
0.0405358
0.0405601
0.040577
0.0405202
0.0405118
0.0405236
0.0405339
0.0404765
0.0404928
0.0404865
0.0404901
0.0404546
0.234476
0.132666
0.0866685
0.0622825
0.0477596
0.0383379
0.03182
0.0270833
0.0235053
0.0207179
0.0184909
0.0166742
0.0151661
0.0138954
0.012811
0.0118753
0.01106
0.0103436
0.00970959
0.00914413
0.00863724
0.00818095
0.00776683
0.00738884
0.00704689
0.00673253
0.00643583
0.00617136
0.00593565
0.00568388
0.00546127
0.00532282
0.00508798
0.00480203
0.00490805
0.00978805
0.0181958
0.0245739
0.0291153
0.0323431
0.0346583
0.0363854
0.0377126
0.038702
0.0394712
0.0399989
0.0404059
0.0407253
0.0409469
0.041079
0.0411882
0.0412266
0.0412792
0.0412803
0.0412971
0.0412999
0.0412832
0.041239
0.0411547
0.041067
0.0409052
0.0407675
0.0406826
0.0406489
0.04059
0.0405691
0.0405759
0.0405854
0.0405614
0.0405383
0.0404552
0.0405203
0.040669
0.0407261
0.0407546
0.0407332
0.04085
0.0409065
0.0408918
0.0409973
0.0410067
0.0411303
0.0411736
0.0411963
0.0411657
0.0411786
0.0411971
0.0411699
0.0411479
0.0411721
0.0411903
0.0411308
0.0411253
0.0411359
0.0411458
0.0410883
0.0411044
0.0410971
0.0411026
0.0410659
0.234476
0.132661
0.0866613
0.0622748
0.0477523
0.0383311
0.0318139
0.0270781
0.0235012
0.020715
0.0184893
0.016674
0.0151673
0.0138981
0.0128151
0.0118809
0.0110671
0.0103521
0.00971936
0.00915515
0.00864936
0.00819401
0.00778107
0.00740391
0.0070622
0.00674914
0.00645367
0.0061875
0.00595309
0.00570606
0.00547696
0.00533584
0.00512281
0.00482093
0.00483619
0.0087102
0.0170191
0.0236484
0.0284687
0.031939
0.0344513
0.0363335
0.0377852
0.0388759
0.0397275
0.0403276
0.0407887
0.0411506
0.0414091
0.0415721
0.0417051
0.0417677
0.0418342
0.041834
0.0418548
0.0418477
0.0418445
0.0417998
0.0417339
0.0416503
0.0414953
0.0413592
0.0412724
0.0412348
0.0411612
0.0411548
0.0411636
0.0411671
0.0411529
0.0411253
0.0410489
0.0411147
0.0412532
0.0413042
0.0413274
0.0413124
0.0414285
0.0414906
0.041477
0.0415858
0.0416052
0.0417273
0.0417613
0.0417815
0.0417568
0.0417729
0.0417866
0.0417637
0.0417396
0.0417637
0.0417827
0.0417233
0.0417188
0.0417274
0.0417363
0.04168
0.0416962
0.0416891
0.0416953
0.0416572
0.234475
0.132656
0.0866546
0.0622678
0.0477454
0.0383247
0.0318081
0.0270729
0.0234968
0.0207114
0.0184866
0.0166724
0.0151668
0.0138987
0.0128169
0.0118839
0.0110712
0.0103573
0.00972572
0.00916262
0.00865784
0.00820331
0.00779148
0.00741521
0.0070737
0.00676179
0.00646782
0.00620015
0.00596637
0.0057246
0.00549053
0.00534397
0.00515317
0.00484146
0.0048013
0.007683
0.015738
0.0225967
0.0276999
0.0314237
0.0341453
0.0361943
0.0377804
0.0389811
0.0399222
0.040601
0.0411221
0.041531
0.0418301
0.0420275
0.0421867
0.0422747
0.0423551
0.0423633
0.0423814
0.0423758
0.0423788
0.0423355
0.0422882
0.0422096
0.0420637
0.0419295
0.0418404
0.0417991
0.0417166
0.0417197
0.0417241
0.0417253
0.0417252
0.0416919
0.0416233
0.0416896
0.0418168
0.0418647
0.0418792
0.0418722
0.0419874
0.0420548
0.0420423
0.0421536
0.0421874
0.0423043
0.0423289
0.0423438
0.0423295
0.0423404
0.0423604
0.0423375
0.0423112
0.0423351
0.0423547
0.0422982
0.0422921
0.0422986