/*--------------------------------*- C++ -*----------------------------------*\
| =========                 |                                                 |
| \\      /  F ield         | OpenFOAM: The Open Source CFD Toolbox           |
|  \\    /   O peration     | Version:  3.0.0                                 |
|   \\  /    A nd           | Web:      www.OpenFOAM.org                      |
|    \\/     M anipulation  |                                                 |
\*---------------------------------------------------------------------------*/
FoamFile
{
    version     2.0;
    format      ascii;
    class       volScalarField;
    location    "100";
    object      nut;
}
// * * * * * * * * * * * * * * * * * * * * * * * * * * * * * * * * * * * * * //

dimensions      [0 2 -1 0 0 0 0];

internalField   nonuniform List<scalar> 
10000
(
7.99824e-05
5.02419e-05
3.83736e-05
3.24344e-05
2.89524e-05
2.66907e-05
2.51158e-05
2.3963e-05
2.30866e-05
2.23993e-05
2.1846e-05
2.13913e-05
2.10094e-05
2.06834e-05
2.04013e-05
2.01543e-05
1.99358e-05
1.97408e-05
1.95653e-05
1.94062e-05
1.92615e-05
1.91292e-05
1.9006e-05
1.88921e-05
1.87882e-05
1.8689e-05
1.85936e-05
1.8508e-05
1.84276e-05
1.83481e-05
1.82646e-05
1.8197e-05
1.81436e-05
1.80465e-05
1.77369e-05
1.65262e-05
1.9163e-05
2.14258e-05
2.26754e-05
2.3264e-05
2.35319e-05
2.36877e-05
2.3771e-05
2.38142e-05
2.38527e-05
2.38633e-05
2.38738e-05
2.38648e-05
2.38547e-05
2.38454e-05
2.38539e-05
2.38324e-05
2.38363e-05
2.38481e-05
2.38694e-05
2.38439e-05
2.38513e-05
2.38513e-05
2.3831e-05
2.37832e-05
2.37561e-05
2.36617e-05
2.36303e-05
2.36261e-05
2.36148e-05
2.36171e-05
2.35951e-05
2.3616e-05
2.36456e-05
2.36335e-05
2.36061e-05
2.35943e-05
2.3601e-05
2.36776e-05
2.3696e-05
2.37004e-05
2.37125e-05
2.3725e-05
2.37231e-05
2.3727e-05
2.372e-05
2.3715e-05
2.37347e-05
2.3774e-05
2.37799e-05
2.37877e-05
2.37901e-05
2.37754e-05
2.3776e-05
2.37685e-05
2.37755e-05
2.37739e-05
2.37628e-05
2.37567e-05
2.37608e-05
2.37757e-05
2.37616e-05
2.37622e-05
2.37523e-05
2.37291e-05
0.000374232
0.000225297
0.000171066
0.000141325
0.000121086
0.000106003
9.42395e-05
8.48544e-05
7.72792e-05
7.11133e-05
6.6073e-05
6.19393e-05
5.85163e-05
5.5689e-05
5.33543e-05
5.14224e-05
4.9822e-05
4.84964e-05
4.73965e-05
4.64899e-05
4.57386e-05
4.51175e-05
4.45935e-05
4.41827e-05
4.3827e-05
4.35264e-05
4.32868e-05
4.31339e-05
4.29304e-05
4.27946e-05
4.26398e-05
4.27691e-05
4.23073e-05
4.23634e-05
4.37575e-05
6.58816e-05
9.93018e-05
0.000114636
0.000119999
0.000121089
0.000121637
0.000121662
0.000121602
0.000121442
0.000121415
0.000121183
0.000121079
0.000120956
0.000120979
0.000120506
0.000120881
0.000120461
0.000120721
0.00012064
0.000120973
0.000120906
0.000120533
0.000120281
0.000119577
0.000118758
0.000118773
0.000117586
0.000117619
0.000118117
0.000117806
0.000117969
0.000117956
0.000117907
0.000118101
0.000117577
0.000117475
0.000117751
0.000119061
0.000119604
0.00011952
0.000119306
0.000119699
0.000120008
0.000119703
0.000119834
0.000119438
0.000119505
0.000120327
0.000120621
0.000120502
0.000120525
0.000120519
0.000120362
0.000119954
0.0001201
0.000120178
0.000119978
0.000119781
0.00011985
0.000119952
0.000120024
0.000120014
0.000119903
0.000119748
0.000119487
0.000562798
0.000367862
0.000286567
0.000242887
0.000214124
0.000192513
0.000174966
0.00016013
0.000147339
0.000136202
0.000126457
0.00011789
0.000110401
0.000103867
9.81404e-05
9.31134e-05
8.8721e-05
8.4897e-05
8.15673e-05
7.86829e-05
7.61844e-05
7.40242e-05
7.21372e-05
7.05626e-05
6.91852e-05
6.7971e-05
6.69582e-05
6.62107e-05
6.5413e-05
6.47377e-05
6.42416e-05
6.41729e-05
6.32533e-05
6.31493e-05
6.54529e-05
0.000129739
0.000214366
0.000252948
0.000268214
0.00027382
0.00027795
0.000279489
0.00028072
0.000281043
0.000281979
0.000281956
0.000282097
0.000282538
0.000282397
0.000281962
0.000282823
0.000282499
0.000283075
0.000283
0.000283584
0.000283639
0.000282408
0.000281516
0.00027928
0.000277305
0.000277359
0.000274422
0.000274747
0.00027634
0.000275683
0.000275932
0.000276164
0.000275841
0.000275536
0.00027472
0.000274838
0.000275904
0.000279109
0.000279501
0.00028033
0.000279392
0.000280322
0.000281095
0.000280405
0.000280838
0.000279748
0.000280116
0.000282088
0.00028222
0.000282445
0.000282597
0.000282102
0.000282127
0.000280838
0.000281457
0.000281295
0.000281094
0.000280561
0.00028087
0.000281147
0.00028103
0.00028147
0.000281246
0.000280089
0.00028002
0.000656674
0.000461455
0.000368801
0.000317393
0.000284224
0.000260079
0.000240797
0.000224466
0.000210153
0.000197356
0.00018579
0.000175252
0.000165643
0.000156855
0.000148841
0.000141548
0.000134914
0.0001289
0.000123433
0.000118476
0.000114006
0.000109978
0.000106323
0.000103128
0.000100243
9.75898e-05
9.52867e-05
9.34474e-05
9.15304e-05
8.97548e-05
8.85287e-05
8.79286e-05
8.55958e-05
8.5105e-05
9.08375e-05
0.000229189
0.000367631
0.000424829
0.000447045
0.000455854
0.000463549
0.000468364
0.000471729
0.000471819
0.000473528
0.000473749
0.000474253
0.000475856
0.000474877
0.000475789
0.000477426
0.000477018
0.000477818
0.00047776
0.000478398
0.000478409
0.000476384
0.00047476
0.000470003
0.000466929
0.00046667
0.000461834
0.000462799
0.000465623
0.000465371
0.00046636
0.00046624
0.000465915
0.00046444
0.000462712
0.00046418
0.000466043
0.000471251
0.000471579
0.000473524
0.000471607
0.000473119
0.000474043
0.000473453
0.00047346
0.000472252
0.000472954
0.000476208
0.000476788
0.000476821
0.00047724
0.000476821
0.00047604
0.000473869
0.000475178
0.000474965
0.000474835
0.000473829
0.000474357
0.000474555
0.00047464
0.000475165
0.00047489
0.000472197
0.000472856
0.00070423
0.00052264
0.000427756
0.000372709
0.000337032
0.000311415
0.000291385
0.000274748
0.000260305
0.000247387
0.00023562
0.00022476
0.000214675
0.00020526
0.000196457
0.000188226
0.000180532
0.00017333
0.000166592
0.000160329
0.000154521
0.000149123
0.000144051
0.000139474
0.00013522
0.000131157
0.000127543
0.000124539
0.000121312
0.000118204
0.000116185
0.000114729
0.000110432
0.000109405
0.00012533
0.000371774
0.000551927
0.000618589
0.000643338
0.000653456
0.000663326
0.000671914
0.000677855
0.000678483
0.000679942
0.000680101
0.000681293
0.000683662
0.000682774
0.000685501
0.000686297
0.000687074
0.000687686
0.000687637
0.000688751
0.000687496
0.000685634
0.00068237
0.000674953
0.0006709
0.000669927
0.000663476
0.000665259
0.000669562
0.000669889
0.000672161
0.000671215
0.000672076
0.000668164
0.000665154
0.000668697
0.000671122
0.00067845
0.000678926
0.000681711
0.000678997
0.000681235
0.000681453
0.000682226
0.000681235
0.000679866
0.000681355
0.000685907
0.000687257
0.000686677
0.000687143
0.000687463
0.000685787
0.000682265
0.00068438
0.000684183
0.000683858
0.000682512
0.000683411
0.000682834
0.000683515
0.000684126
0.000683714
0.000679547
0.000681045
0.000728798
0.000562603
0.000470403
0.000414583
0.000377691
0.000351221
0.000330829
0.000314136
0.000299826
0.00028717
0.000275723
0.000265169
0.000255332
0.000246084
0.000237344
0.000229061
0.0002212
0.000213727
0.000206597
0.000199838
0.000193432
0.000187328
0.000181487
0.000176124
0.000171023
0.000165971
0.000161421
0.00015756
0.000153182
0.000148925
0.000146345
0.000143679
0.000137933
0.000136089
0.000174518
0.000552333
0.000755376
0.000823988
0.00084831
0.000858642
0.000869095
0.000881018
0.000890863
0.000893604
0.000894687
0.000894088
0.000895991
0.00089874
0.000897884
0.000902033
0.0009023
0.000904332
0.000904442
0.000904082
0.000905123
0.000903602
0.000901093
0.000896193
0.000886069
0.00088118
0.000879318
0.000871373
0.000873964
0.000879953
0.000880921
0.000884236
0.000882616
0.000884362
0.000878674
0.000873626
0.000879967
0.000882813
0.000892417
0.000893215
0.000896308
0.000893128
0.000896352
0.000895693
0.000897119
0.000896193
0.000894172
0.000897293
0.000903096
0.000905478
0.000904715
0.000904174
0.00090421
0.000902979
0.00089783
0.000900697
0.000900645
0.000899794
0.000898268
0.000899693
0.00089799
0.000899261
0.000900031
0.000899382
0.00089413
0.000896285
0.00074149
0.000588611
0.0005012
0.00044652
0.000409559
0.000382791
0.000362198
0.0003455
0.000331387
0.000319049
0.000307966
0.000297825
0.000288431
0.000279614
0.00027127
0.00026333
0.000255746
0.000248486
0.000241486
0.000234775
0.000228344
0.000222126
0.000216067
0.000210443
0.000204985
0.000199441
0.000194453
0.000190194
0.000185005
0.000179994
0.000177287
0.00017352
0.000166228
0.000164751
0.000240937
0.000755919
0.000966284
0.00103305
0.0010559
0.00106623
0.00107711
0.00109213
0.00110586
0.00111158
0.00111234
0.00111127
0.00111343
0.00111669
0.00111592
0.0011206
0.00112064
0.00112311
0.00112374
0.00112236
0.00112295
0.00112244
0.0011182
0.00111173
0.001099
0.00109342
0.00109058
0.00108117
0.00108456
0.00109214
0.00109384
0.00109777
0.00109553
0.00109831
0.00109168
0.00108365
0.00109329
0.00109661
0.0011086
0.00111004
0.00111223
0.0011093
0.00111375
0.00111315
0.00111495
0.00111358
0.00111038
0.00111644
0.00112352
0.00112562
0.00112561
0.00112265
0.00112408
0.00112195
0.00111595
0.00111949
0.00111971
0.00111819
0.00111644
0.00111882
0.00111563
0.00111731
0.00111829
0.00111729
0.00111157
0.00111395
0.000747927
0.000605317
0.000523217
0.000470791
0.000434636
0.000408101
0.000387573
0.00037096
0.000357005
0.000344914
0.000334173
0.000324438
0.000315455
0.000307071
0.000299183
0.000291691
0.000284535
0.000277677
0.000271038
0.000264642
0.000258484
0.000252481
0.000246559
0.000241054
0.000235646
0.000229991
0.000224941
0.000220654
0.000215003
0.00020966
0.000207301
0.000202584
0.000193777
0.000194183
0.000323773
0.000964557
0.00117571
0.00124021
0.00126202
0.00127279
0.00128428
0.0013023
0.00131953
0.00132841
0.0013302
0.00132885
0.00133067
0.00133463
0.00133413
0.0013384
0.00133855
0.00134162
0.00134111
0.00133986
0.00134121
0.00134093
0.00133437
0.0013264
0.00131121
0.00130508
0.00130102
0.00129041
0.00129459
0.00130311
0.00130579
0.00131131
0.00130867
0.001311
0.00130447
0.00129287
0.00130603
0.00130975
0.00132422
0.00132704
0.00132939
0.00132429
0.00133077
0.00133144
0.00133258
0.00133076
0.00132705
0.00133518
0.00134311
0.00134484
0.00134545
0.00134122
0.00134366
0.00134042
0.0013334
0.00133803
0.00133852
0.00133672
0.00133424
0.00133658
0.00133331
0.00133485
0.00133616
0.00133451
0.00132951
0.00133121
0.000751067
0.000615831
0.000538701
0.000489032
0.000454273
0.00042842
0.000408242
0.000391854
0.000378099
0.000366235
0.00035576
0.000346337
0.000337717
0.000329738
0.000322249
0.000315164
0.000308435
0.000302006
0.000295785
0.000289792
0.00028402
0.000278373
0.000272759
0.000267563
0.000262424
0.000256896
0.000252057
0.000248025
0.000242157
0.000236777
0.000235111
0.000229631
0.000219195
0.00022326
0.000420093
0.00116152
0.00137787
0.00144188
0.00146394
0.00147605
0.00148853
0.00150954
0.00152929
0.00154186
0.00154663
0.00154503
0.00154589
0.00155078
0.00155111
0.00155366
0.00155438
0.0015583
0.00155622
0.00155442
0.00155712
0.00155681
0.0015481
0.00153863
0.00152115
0.00151458
0.001509
0.0014976
0.00150283
0.00151173
0.00151467
0.00152197
0.00151912
0.00152069
0.00151408
0.00150018
0.00151648
0.00152051
0.00153757
0.00154256
0.00154609
0.00153759
0.00154609
0.00154777
0.00154831
0.00154602
0.00154248
0.00155181
0.00156007
0.00156123
0.00156273
0.00155821
0.00156063
0.00155661
0.00154853
0.00155457
0.0015553
0.00155247
0.0015497
0.0015526
0.00154921
0.00155002
0.0015519
0.00154886
0.00154511
0.00154647
0.0007525
0.00062227
0.000549358
0.000502516
0.000469479
0.000444639
0.000425064
0.000409064
0.000395596
0.000383982
0.000373754
0.000364595
0.000356262
0.000348595
0.00034145
0.000334741
0.000328376
0.000322317
0.000316485
0.000310883
0.000305505
0.000300243
0.000294988
0.000290166
0.000285388
0.000280102
0.000275598
0.000271965
0.000266051
0.000260852
0.000260082
0.000253891
0.000242567
0.000249717
0.000520954
0.00134299
0.00156958
0.00163588
0.00165993
0.00167445
0.00168846
0.00171254
0.00173501
0.00175078
0.00175891
0.00175688
0.00175851
0.00176417
0.00176442
0.00176558
0.00176706
0.00177077
0.00176814
0.00176529
0.00176953
0.00176911
0.00175838
0.00174748
0.00172789
0.00172095
0.00171359
0.00170188
0.00170691
0.0017172
0.00172088
0.00172805
0.00172604
0.00172698
0.00171917
0.0017048
0.00172355
0.00172786
0.00174769
0.0017557
0.00175883
0.00174812
0.00175787
0.00176153
0.00176087
0.00175827
0.00175594
0.00176506
0.00177449
0.00177485
0.00177609
0.00177307
0.00177338
0.00176917
0.00176068
0.00176812
0.00176834
0.00176431
0.00176131
0.00176562
0.00176261
0.00176135
0.00176443
0.00176042
0.00175735
0.00175859
0.000753084
0.00062608
0.000556502
0.000512275
0.000481065
0.000457439
0.000438663
0.000423206
0.000410127
0.000398818
0.000388855
0.000379946
0.000371863
0.000364457
0.000357587
0.000351168
0.000345114
0.000339394
0.00033389
0.000328614
0.000323589
0.000318682
0.000313771
0.000309314
0.000304909
0.0002999
0.000295764
0.00029258
0.00028671
0.000281793
0.00028197
0.000275163
0.000263427
0.000273381
0.000618129
0.00150772
0.00174927
0.00182096
0.0018489
0.00186698
0.00188308
0.00191059
0.00193576
0.00195448
0.00196618
0.00196504
0.00196733
0.00197361
0.00197346
0.00197512
0.00197568
0.00197817
0.00197617
0.00197257
0.00197763
0.00197717
0.00196461
0.00195239
0.00193086
0.00192359
0.00191423
0.0019029
0.0019061
0.00191851
0.00192408
0.00193065
0.00192859
0.00192939
0.00191941
0.00190603
0.00192649
0.00193124
0.00195419
0.00196458
0.00196682
0.00195506
0.00196525
0.00197047
0.00196961
0.00196686
0.00196537
0.00197403
0.00198564
0.00198487
0.00198608
0.00198315
0.00198126
0.00197803
0.0019692
0.00197645
0.00197775
0.00197269
0.00196955
0.00197469
0.00197163
0.0019685
0.0019729
0.0019683
0.00196561
0.00196682
0.000753272
0.000628239
0.000561144
0.000519166
0.000489717
0.000467384
0.000449533
0.000434739
0.000422147
0.000411212
0.000401553
0.000392907
0.000385068
0.000377896
0.000371263
0.000365086
0.000359284
0.000353825
0.000348599
0.00034362
0.000338889
0.000334277
0.000329665
0.000325528
0.000321469
0.000316724
0.000312931
0.000310188
0.000304409
0.000299793
0.000300867
0.00029355
0.000281661
0.000294212
0.000705045
0.00165523
0.00191619
0.00199643
0.00203015
0.00205296
0.00207175
0.00210308
0.002131
0.00215316
0.0021677
0.00216878
0.002172
0.00217816
0.00217783
0.00217992
0.00218001
0.0021796
0.00217994
0.00217571
0.002181
0.00218055
0.00216646
0.00215303
0.00212973
0.00212214
0.00211067
0.00210071
0.00210148
0.00211508
0.0021223
0.00212784
0.00212629
0.00212744
0.00211458
0.00210353
0.00212481
0.00213052
0.00215706
0.00216895
0.00217
0.00215783
0.00216888
0.00217386
0.00217392
0.00217143
0.00217053
0.00217909
0.00219332
0.00219087
0.00219214
0.00218786
0.00218523
0.00218262
0.00217372
0.00218073
0.00218258
0.00217693
0.00217378
0.00217937
0.00217598
0.00217151
0.00217658
0.00217197
0.00216953
0.00217071
0.000753293
0.000629398
0.000564054
0.000523892
0.000496029
0.000474965
0.000458089
0.000444036
0.000432009
0.000421513
0.000412205
0.000403851
0.000396267
0.000389327
0.000382913
0.000376951
0.000371364
0.000366125
0.000361125
0.000356376
0.000351892
0.000347545
0.000343183
0.000339305
0.000335545
0.000331033
0.00032753
0.00032519
0.000319526
0.000315174
0.00031703
0.000309341
0.00029738
0.000312326
0.000776875
0.00178542
0.00206999
0.0021619
0.00220325
0.00223191
0.00225403
0.0022895
0.00232035
0.00234674
0.00236262
0.00236777
0.00237267
0.00237743
0.00237731
0.00237967
0.00237933
0.00237603
0.00237911
0.00237451
0.00237936
0.00237894
0.00236377
0.00234926
0.00232436
0.00231645
0.00230282
0.00229379
0.00229327
0.00230667
0.00231557
0.00232172
0.00232075
0.00232049
0.00230432
0.00229703
0.00231812
0.00232606
0.00235453
0.00236892
0.0023686
0.00235607
0.00236819
0.00237296
0.00237334
0.00237167
0.0023712
0.00238073
0.00239642
0.00239234
0.00239425
0.00238675
0.00238491
0.00238302
0.002374
0.00238062
0.00238233
0.00237651
0.0023738
0.00237939
0.00237549
0.00236975
0.00237513
0.00237113
0.00236887
0.00237001
0.000753258
0.000629974
0.000565801
0.00052703
0.000500511
0.000480615
0.000464701
0.000451419
0.000440004
0.000429997
0.000421084
0.000413057
0.00040575
0.000399052
0.000392858
0.000387101
0.00038171
0.000376663
0.000371858
0.000367301
0.000363019
0.000358882
0.000354728
0.000351075
0.000347572
0.000343254
0.000339973
0.000337985
0.000332454
0.000328296
0.000330791
0.0003229
0.000310824
0.000327943
0.000830402
0.00189826
0.00221045
0.00231712
0.00236789
0.0024035
0.00242963
0.00246952
0.00250359
0.00253325
0.0025523
0.00256236
0.00256759
0.0025716
0.00257179
0.00257381
0.00257509
0.00256908
0.00257331
0.00256916
0.00257251
0.00257226
0.00255648
0.00254104
0.0025147
0.00250646
0.0024907
0.0024823
0.00248128
0.00249335
0.00250396
0.00251055
0.0025099
0.00250856
0.00248859
0.00248611
0.00250615
0.00251618
0.00254681
0.00256281
0.00256246
0.00254948
0.00256318
0.00256759
0.002568
0.00256728
0.0025673
0.00257714
0.00259452
0.00258904
0.00259072
0.00257908
0.00257829
0.00257963
0.00256979
0.00257594
0.00257653
0.00257083
0.00256982
0.00257463
0.00257009
0.00256268
0.00256963
0.00256562
0.00256354
0.00256463
0.000753213
0.000630229
0.000566797
0.000529037
0.000503599
0.000484721
0.000469701
0.000457177
0.00044639
0.000436901
0.000428416
0.000420745
0.000413739
0.000407301
0.000401336
0.000395785
0.000390586
0.000385719
0.000381091
0.000376702
0.000372592
0.000368633
0.000364652
0.000361168
0.000357883
0.000353746
0.00035063
0.000348939
0.000343559
0.000339505
0.000342489
0.000334588
0.000322273
0.000341302
0.000863797
0.0019936
0.00233737
0.00246187
0.00252386
0.00256749
0.00259835
0.00264288
0.0026806
0.0027125
0.00273645
0.00274958
0.00275637
0.00276076
0.00276122
0.00276437
0.00276578
0.00275862
0.00276238
0.00275984
0.00276028
0.00276056
0.00274465
0.00272842
0.0027008
0.00269219
0.0026744
0.00266619
0.00266563
0.00267557
0.00268755
0.0026945
0.00269391
0.00269176
0.00266866
0.00267081
0.00268861
0.00270114
0.00273406
0.00275079
0.00275159
0.00273839
0.00275427
0.00275801
0.0027579
0.00275823
0.00275878
0.00276799
0.00278778
0.00278088
0.00278167
0.00276824
0.0027692
0.00277079
0.0027606
0.00276665
0.00276693
0.00276025
0.00276117
0.00276525
0.00275982
0.00275168
0.00275964
0.00275542
0.00275353
0.00275453
0.000753175
0.000630315
0.000567326
0.000530265
0.000505654
0.000487621
0.000473393
0.000461575
0.000451401
0.000442434
0.000434394
0.000427099
0.000420416
0.000414255
0.000408533
0.000403197
0.000398191
0.000393502
0.000389044
0.000384811
0.000380855
0.000377055
0.000373223
0.000369876
0.000366778
0.000362794
0.000359781
0.000358356
0.000353161
0.000349112
0.000352446
0.000344748
0.000332012
0.000352644
0.000876397
0.00207103
0.00245046
0.00259592
0.00267092
0.00272368
0.00276004
0.00280941
0.00285126
0.00288405
0.00291261
0.00292959
0.00293794
0.00294489
0.00294568
0.00294971
0.00295113
0.00294246
0.00294602
0.00294466
0.00294551
0.00294381
0.00292834
0.0029115
0.00288277
0.00287372
0.00285403
0.0028456
0.00284659
0.00285398
0.0028664
0.00287345
0.00287295
0.00287041
0.00284594
0.00285075
0.00286638
0.00288128
0.00291643
0.00293277
0.00293627
0.00292317
0.00294097
0.00294462
0.00294309
0.0029447
0.0029457
0.00295493
0.0029762
0.00296779
0.00296727
0.00295408
0.00295539
0.00295699
0.00294663
0.00295284
0.00295345
0.00294595
0.00294707
0.0029515
0.00294465
0.00293666
0.00294508
0.00294055
0.0029389
0.00293978
0.000753149
0.000630323
0.000567579
0.000530976
0.00050697
0.000489604
0.000476046
0.000464857
0.000455254
0.000446793
0.000439195
0.000432285
0.000425936
0.000420065
0.000414599
0.000409487
0.000404683
0.000400175
0.000395886
0.000391806
0.000387995
0.000384342
0.000380648
0.000377413
0.00037448
0.000370642
0.000367685
0.000366479
0.000361496
0.000357374
0.000360952
0.000353683
0.000340285
0.00036218
0.000868609
0.00212984
0.00254929
0.00271898
0.00280886
0.00287186
0.00291456
0.00296899
0.00301545
0.00305007
0.00308151
0.00310284
0.00311487
0.00312364
0.0031252
0.00313084
0.00313108
0.00312039
0.00312669
0.0031237
0.00312579
0.00312247
0.0031077
0.00309041
0.00306073
0.00305117
0.00302972
0.00302069
0.00302263
0.00302932
0.00304065
0.00304735
0.00304723
0.00304468
0.00302037
0.00302499
0.00303998
0.00305678
0.00309402
0.00311059
0.00311681
0.00310165
0.00312252
0.00312606
0.00312385
0.00312723
0.00312812
0.00313768
0.0031599
0.00314967
0.00314778
0.00313666
0.00313692
0.0031384
0.00312805
0.00313484
0.00313534
0.00312836
0.00312783
0.0031338
0.00312448
0.00311796
0.00312593
0.00312109
0.00311975
0.00312047
0.000753131
0.000630298
0.000567677
0.000531359
0.000507773
0.000490913
0.000477894
0.000467243
0.00045815
0.000450159
0.000442985
0.000436453
0.000430439
0.000424865
0.000419662
0.000414784
0.000410188
0.000405867
0.000401752
0.000397826
0.000394156
0.000390647
0.000387085
0.000383948
0.000381165
0.000377473
0.000374534
0.000373513
0.000368784
0.000364495
0.000368237
0.000361639
0.000347286
0.000370086
0.000841961
0.00216889
0.00263327
0.00283067
0.00293741
0.00301184
0.00306177
0.00312154
0.00317306
0.00321021
0.00324444
0.00326945
0.003287
0.00329699
0.00330003
0.00330586
0.00330602
0.0032944
0.00330244
0.00329994
0.00330104
0.00329678
0.00328285
0.0032653
0.00323487
0.00322471
0.00320164
0.00319167
0.00319425
0.003201
0.00321051
0.00321603
0.00321699
0.00321459
0.00319243
0.00319609
0.00320895
0.00322755
0.00326702
0.00328408
0.00329212
0.00327627
0.00329907
0.00330271
0.00330025
0.00330639
0.00330612
0.00331623
0.00333907
0.00332624
0.00332304
0.0033162
0.00331391
0.00331511
0.00330503
0.00331319
0.00331179
0.00330573
0.00330389
0.00331059
0.00329914
0.00329519
0.00330241
0.00329711
0.00329624
0.00329674
0.00075312
0.000630262
0.000567695
0.000531542
0.000508235
0.00049174
0.000479139
0.000468928
0.000460272
0.0004527
0.000445917
0.000439744
0.000434057
0.000428777
0.000423838
0.000419198
0.000414816
0.000410687
0.000406749
0.000402982
0.000399454
0.000396088
0.00039266
0.000389611
0.000386968
0.00038343
0.000380482
0.000379613
0.000375187
0.000370657
0.000374511
0.000368828
0.000353145
0.000376447
0.000799216
0.00218627
0.00270162
0.00293049
0.00305621
0.00314339
0.00320151
0.00326699
0.00332403
0.00336426
0.00340157
0.00342923
0.00345167
0.00346534
0.00347045
0.00347503
0.00347609
0.00346428
0.00347375
0.00347102
0.00347178
0.00346689
0.00345391
0.00343636
0.00340539
0.00339453
0.00336998
0.00335884
0.00336187
0.00336877
0.00337614
0.00338222
0.00338314
0.00337974
0.00336108
0.00336379
0.00337308
0.0033936
0.00343572
0.00345327
0.00346261
0.00344719
0.00347089
0.00347486
0.0034724
0.00348083
0.00348002
0.00349068
0.00351396
0.00349974
0.00349309
0.00349188
0.00348666
0.00348711
0.00347775
0.00348601
0.00348327
0.00347903
0.00347532
0.00348214
0.00347062
0.00346751
0.00347493
0.0034687
0.00346863
0.00346874
0.000753113
0.000630227
0.000567674
0.000531612
0.000508478
0.000492235
0.000479945
0.000470079
0.000461784
0.000454571
0.000448136
0.000442292
0.000436912
0.000431914
0.000427235
0.000422831
0.000418663
0.000414728
0.000410972
0.000407366
0.000403982
0.000400761
0.000397469
0.000394506
0.000391994
0.000388621
0.000385651
0.000384898
0.000380829
0.000376
0.000379936
0.000375345
0.000358212
0.000381088
0.000744425
0.00217895
0.00275333
0.00301785
0.00316489
0.00326621
0.00333359
0.00340525
0.00346828
0.00351212
0.00355294
0.00358211
0.00360894
0.00362895
0.00363682
0.00363804
0.00364163
0.0036302
0.00364062
0.00363739
0.00363816
0.00363299
0.00362099
0.00360375
0.00357253
0.00356085
0.00353498
0.00352258
0.00352585
0.00353311
0.00353758
0.00354638
0.00354536
0.00354276
0.00352723
0.0035277
0.00353451
0.00355653
0.00360019
0.00361824
0.00362867
0.00361501
0.00363816
0.00364278
0.00364047
0.00365112
0.00364995
0.00366118
0.00368473
0.00367049
0.00366131
0.00366203
0.00365578
0.0036542
0.00364647
0.00365357
0.00365289
0.00364871
0.00364244
0.00364952
0.00363871
0.0036355
0.00364381
0.00363585
0.00363729
0.00363668
0.000753109
0.000630194
0.000567638
0.000531618
0.000508588
0.000492511
0.000480442
0.000470836
0.000462827
0.000455912
0.000449775
0.000444223
0.000439121
0.000434386
0.000429953
0.000425777
0.000421821
0.000418078
0.000414503
0.000411061
0.000407821
0.000404746
0.000401596
0.000398717
0.000396328
0.000393136
0.000390137
0.000389461
0.000385806
0.000380654
0.00038461
0.000381111
0.000363954
0.000382654
0.000683396
0.00214176
0.00278717
0.00309202
0.00326294
0.00337999
0.0034578
0.00353622
0.00360571
0.00365371
0.00369849
0.00372791
0.00375862
0.00378589
0.00379785
0.00379718
0.00380273
0.00379259
0.00380295
0.00379936
0.00380039
0.00379519
0.00378411
0.00376763
0.00373657
0.00372389
0.00369689
0.00368335
0.00368649
0.00369438
0.00369469
0.00370632
0.00370398
0.0037039
0.00369024
0.00368837
0.00369295
0.00371721
0.00376066
0.00377915
0.00379059
0.00377773
0.00380132
0.00380671
0.00380465
0.00381758
0.00381611
0.00382792
0.00385144
0.00383661
0.00382444
0.0038284
0.00382176
0.00381722
0.0038114
0.00381564
0.00381874
0.00381327
0.003806
0.00381373
0.00380351
0.00379949
0.00380961
0.00379835
0.00380245
0.00380075
0.000753105
0.000630166
0.000567597
0.000531595
0.000508622
0.000492648
0.000480728
0.000471311
0.000463521
0.000456842
0.000450953
0.000445649
0.000440793
0.000436296
0.000432089
0.000428128
0.000424373
0.000420817
0.000417419
0.000414141
0.000411045
0.000408114
0.00040511
0.000402317
0.000400042
0.000397044
0.000394023
0.000393376
0.000390186
0.000384743
0.000388507
0.000386363
0.00036878
0.000384291
0.00062305
0.00207041
0.00280186
0.00315216
0.00334979
0.00348433
0.00357385
0.00365976
0.00373623
0.00378894
0.00383816
0.00386935
0.00390356
0.00393643
0.00395309
0.00395183
0.00395998
0.00395222
0.00396092
0.00395722
0.00395868
0.00395358
0.0039432
0.0039281
0.00389789
0.00388386
0.00385597
0.00384142
0.00384394
0.00385262
0.00385072
0.00386206
0.00385916
0.00386073
0.00384921
0.00384613
0.00384838
0.00387365
0.00391766
0.00393622
0.00394865
0.00393628
0.00396047
0.00396681
0.00396513
0.00398027
0.00397873
0.00399109
0.00401421
0.00399875
0.00398495
0.00399095
0.00398251
0.00397686
0.0039726
0.00397473
0.00398103
0.00397269
0.00396619
0.00397479
0.00396536
0.0039597
0.0039708
0.00395822
0.00396359
0.00396123
0.000753102
0.000630141
0.000567558
0.000531558
0.000508614
0.000492702
0.000480878
0.000471592
0.000463962
0.000457465
0.000451773
0.000446675
0.000442028
0.000437738
0.000433734
0.000429969
0.000426401
0.000423022
0.000419794
0.000416675
0.000413719
0.00041093
0.000408073
0.000405368
0.000403197
0.000400405
0.000397375
0.000396707
0.000394023
0.000388367
0.000391639
0.000391131
0.000373057
0.000385822
0.000565894
0.0019689
0.00279622
0.00319731
0.00342478
0.00357876
0.00368143
0.00377568
0.00385969
0.00391772
0.00397186
0.004006
0.00404315
0.00408101
0.00410256
0.00410191
0.0041138
0.00410681
0.00411507
0.00411128
0.00411324
0.00410817
0.00409801
0.00408511
0.00405708
0.00404092
0.0040124
0.00399682
0.00399801
0.00400841
0.00400626
0.00401367
0.00401118
0.00401395
0.00400452
0.00400078
0.00400084
0.00402514
0.00407166
0.00408982
0.00410305
0.00409115
0.00411589
0.00412325
0.00412209
0.00413941
0.00413802
0.00415091
0.00417305
0.00415738
0.00414256
0.00415004
0.00414062
0.00413609
0.00413015
0.00413028
0.00414046
0.00412826
0.00412327
0.00413281
0.00412418
0.00411638
0.00412784
0.00411516
0.00412003
0.00411847
0.0007531
0.000630119
0.000567522
0.000531518
0.000508586
0.000492708
0.000480944
0.000471744
0.000464226
0.000457864
0.000452324
0.000447391
0.000442915
0.000438801
0.000434973
0.000431382
0.000427984
0.000424766
0.000421697
0.000418729
0.000415909
0.000413254
0.000410545
0.000407929
0.000405849
0.000403269
0.000400254
0.000399511
0.000397357
0.000391588
0.000394139
0.000395321
0.000376996
0.000387114
0.000514941
0.00184019
0.00276916
0.00322643
0.00348713
0.00366273
0.00378013
0.00388373
0.00397594
0.00403993
0.0040995
0.00413764
0.00417722
0.00421957
0.00424616
0.00424754
0.00426464
0.00425705
0.00426559
0.00426182
0.00426427
0.0042589
0.00424804
0.00423842
0.00421423
0.0041952
0.00416613
0.00414933
0.00414859
0.00416265
0.00415879
0.00416127
0.00416038
0.00416404
0.00415639
0.00415228
0.00415035
0.00417449
0.00422211
0.00424041
0.00425404
0.00424265
0.00426782
0.00427617
0.00427574
0.00429519
0.00429421
0.00430761
0.0043277
0.00431306
0.00429722
0.00430596
0.00429583
0.00429269
0.00428469
0.00428406
0.0042975
0.00428077
0.00427749
0.00428788
0.00427927
0.00426991
0.00428073
0.00426945
0.00427243
0.00427268
0.000753097
0.000630099
0.000567489
0.000531478
0.000508549
0.000492688
0.000480959
0.000471815
0.000464372
0.000458105
0.000452678
0.000447872
0.000443534
0.000439563
0.000435883
0.000432442
0.000429193
0.00042612
0.000423195
0.000420368
0.000417674
0.000415144
0.00041258
0.000410054
0.000408051
0.000405685
0.000402711
0.000401842
0.00040022
0.000394455
0.000396147
0.000398731
0.000380982
0.000388101
0.000472982
0.00168692
0.00271977
0.00323835
0.00353596
0.00373561
0.0038695
0.00398363
0.00408477
0.00415544
0.00422097
0.00426403
0.00430585
0.00435173
0.0043837
0.00438859
0.0044103
0.00440352
0.00441283
0.00440904
0.00441199
0.00440561
0.00439665
0.00438775
0.00436764
0.00434679
0.00431712
0.00429864
0.00429602
0.00431268
0.00430705
0.00430707
0.00430693
0.00431134
0.00430493
0.00430084
0.00429694
0.00432136
0.00436891
0.00438822
0.0044018
0.00439097
0.00441642
0.00442576
0.00442626
0.00444767
0.00444749
0.00446139
0.00447997
0.00446644
0.00444897
0.00445895
0.00444816
0.00444577
0.00443651
0.0044356
0.00445124
0.00442986
0.00442915
0.00443991
0.00443097
0.00442057
0.00443152
0.00441901
0.00442266
0.00442379
0.000753095
0.000630082
0.000567459
0.000531441
0.00050851
0.000492656
0.000480946
0.000471835
0.000464442
0.00045824
0.000452893
0.000448181
0.000443949
0.000440093
0.000436533
0.000433218
0.000430096
0.000427148
0.000424351
0.000421651
0.000419074
0.000416657
0.000414229
0.000411795
0.000409853
0.000407693
0.000404794
0.000403755
0.000402635
0.000397019
0.000397729
0.000401491
0.000385337
0.00038857
0.00044172
0.00151237
0.00264765
0.00323185
0.00357029
0.00379666
0.00394899
0.00407501
0.0041859
0.00426406
0.00433609
0.00438494
0.00442947
0.00447745
0.0045148
0.00452461
0.00455078
0.00454632
0.00455674
0.00455308
0.00455661
0.00454763