/*--------------------------------*- C++ -*----------------------------------*\
| =========                 |                                                 |
| \\      /  F ield         | OpenFOAM: The Open Source CFD Toolbox           |
|  \\    /   O peration     | Version:  3.0.0                                 |
|   \\  /    A nd           | Web:      www.OpenFOAM.org                      |
|    \\/     M anipulation  |                                                 |
\*---------------------------------------------------------------------------*/
FoamFile
{
    version     2.0;
    format      ascii;
    class       volScalarField;
    location    "100";
    object      p;
}
// * * * * * * * * * * * * * * * * * * * * * * * * * * * * * * * * * * * * * //

dimensions      [0 2 -2 0 0 0 0];

internalField   nonuniform List<scalar> 
10000
(
0.0461965
0.0154713
0.0117595
0.0115567
0.0106335
0.0101245
0.00984724
0.00956433
0.00929816
0.00906672
0.00885411
0.00865622
0.00846914
0.00829514
0.00812761
0.00797202
0.00781986
0.00768021
0.00754191
0.00741326
0.00728699
0.00717509
0.00706632
0.00696065
0.00686446
0.00677303
0.00671012
0.00661977
0.00658315
0.00647607
0.00643
0.00619871
0.00588995
0.00533307
0.00470843
0.00443992
0.00446322
0.00417934
0.00373466
0.00331916
0.00282414
0.00252483
0.00220725
0.00202745
0.00184663
0.00173152
0.00160519
0.00152754
0.00143152
0.0013591
0.00128101
0.00122179
0.00115406
0.00110808
0.00106357
0.00103593
0.00100434
0.000983614
0.000968182
0.000934616
0.000918278
0.000870823
0.000823016
0.000795396
0.00076338
0.000723415
0.00068986
0.00066459
0.000630686
0.000587147
0.000554022
0.00053578
0.000543307
0.00055804
0.000577162
0.000558786
0.000542896
0.000539227
0.000545819
0.000536889
0.00052657
0.000495756
0.000508132
0.000509647
0.000510503
0.000493554
0.000487541
0.000461404
0.000439478
0.000399096
0.000385708
0.000350304
0.000318498
0.000277425
0.000250874
0.000195229
0.000167142
0.000123685
7.46467e-05
1.83878e-05
0.0275322
0.0109604
0.0110087
0.0114619
0.0106232
0.0101144
0.00983461
0.00955453
0.00929279
0.00906509
0.00885529
0.00865946
0.00847385
0.00830093
0.00813419
0.00797913
0.00782734
0.00768784
0.00754967
0.00742104
0.00729477
0.00718263
0.00707369
0.00696777
0.00687147
0.00677971
0.00671635
0.00662553
0.006588
0.00648057
0.0064332
0.00620214
0.0058936
0.0053397
0.00472152
0.00444628
0.00444482
0.00413998
0.0036887
0.00327646
0.00278931
0.00249776
0.00218735
0.00201296
0.00183621
0.00172405
0.0016001
0.00152399
0.0014292
0.00135773
0.00128059
0.00122185
0.00115445
0.0011086
0.00106428
0.00103676
0.00100546
0.000984735
0.000969109
0.000935867
0.000919283
0.000871965
0.000824379
0.000796098
0.0007638
0.000723908
0.000690436
0.000664993
0.000630848
0.000587573
0.000555113
0.000537306
0.000544766
0.000558565
0.000576675
0.000558421
0.000542883
0.00053894
0.000545304
0.000536289
0.00052624
0.000496076
0.000508359
0.000509313
0.000509796
0.000492861
0.000486855
0.000460574
0.000438699
0.00039864
0.00038529
0.00034988
0.000318139
0.00027713
0.000250463
0.000194802
0.000166788
0.000123412
7.42499e-05
1.81896e-05
0.0229135
0.0112056
0.0112428
0.0115077
0.010647
0.0101345
0.00984924
0.00956608
0.00930264
0.00907358
0.00886289
0.00866648
0.00848061
0.00830752
0.00814075
0.00798561
0.00783389
0.00769435
0.00755626
0.00742766
0.00730152
0.00718928
0.00708027
0.00697441
0.00687816
0.00678662
0.00672285
0.00663263
0.00659458
0.00648907
0.00644245
0.00621761
0.00591846
0.00538379
0.0047838
0.00448821
0.00442903
0.00408773
0.00362916
0.00322293
0.00274743
0.0024657
0.00216473
0.00199683
0.00182498
0.00171631
0.00159542
0.00152093
0.00142757
0.00135721
0.00128121
0.0012229
0.00115586
0.00111012
0.00106595
0.00103849
0.00100759
0.000986804
0.000971029
0.000938496
0.000921419
0.00087422
0.000826661
0.000797131
0.000764426
0.000724696
0.000691291
0.000665577
0.000631122
0.000588555
0.000557309
0.000539719
0.000546319
0.000558501
0.000575344
0.000557743
0.000542695
0.000538223
0.000544195
0.000535139
0.000525651
0.000496559
0.000508419
0.000508434
0.000508369
0.000491709
0.000485669
0.000459226
0.000437608
0.000398062
0.000384606
0.000349267
0.000317604
0.000276753
0.000249807
0.00019412
0.00016625
0.000123093
7.36558e-05
1.79391e-05
0.0232604
0.0121776
0.0114782
0.0115424
0.0106766
0.0101603
0.00986711
0.0095793
0.00931304
0.0090818
0.00886955
0.00867209
0.00848558
0.00831198
0.00814493
0.00798951
0.00783774
0.00769801
0.00755997
0.00743134
0.00730537
0.00719301
0.00708403
0.00697835
0.00688233
0.00679125
0.00672723
0.00663832
0.00660026
0.0064987
0.00645517
0.00624319
0.00596468
0.00547156
0.00491363
0.00460453
0.00445969
0.00405948
0.00358233
0.00317667
0.00271046
0.00243638
0.00214455
0.00198246
0.00181514
0.00170968
0.00159198
0.0015188
0.00142687
0.0013576
0.00128264
0.00122454
0.00115793
0.00111206
0.00106797
0.00104052
0.00100998
0.000989016
0.000973061
0.000941536
0.000923955
0.000876958
0.00082938
0.000798281
0.000765182
0.000725664
0.000692193
0.00066616
0.000631146
0.000589436
0.000560165
0.000543121
0.000548389
0.000558396
0.000573957
0.000557032
0.000542427
0.00053745
0.000542868
0.000533773
0.000524806
0.000497073
0.000508672
0.000507644
0.000506763
0.00049038
0.000484291
0.000457557
0.00043623
0.000397405
0.000383789
0.000348498
0.000316883
0.000276415
0.000248935
0.000193242
0.000165529
0.000122738
7.29853e-05
1.77286e-05
0.0232375
0.0125794
0.0115714
0.0115569
0.0107006
0.0101809
0.00988073
0.00958945
0.00932129
0.00908844
0.00887504
0.00867674
0.00848968
0.00831558
0.00814828
0.00799254
0.00784069
0.00770068
0.00756263
0.00743386
0.00730802
0.0071954
0.00708639
0.00698079
0.00688492
0.00679418
0.0067297
0.00664222
0.00660388
0.00650709
0.0064674
0.00627271
0.0060236
0.0055907
0.00509359
0.00477844
0.00453166
0.00406101
0.00355728
0.00314648
0.00268563
0.00241516
0.00213046
0.00197239
0.00180861
0.00170555
0.00159063
0.00151808
0.00142753
0.00135911
0.00128477
0.00122671
0.0011605
0.00111427
0.00107016
0.00104253
0.00101219
0.000990921
0.000974712
0.000944357
0.000926348
0.000879649
0.000832113
0.000799462
0.000766033
0.000726715
0.000693034
0.000666661
0.000630904
0.000590024
0.000563192
0.000546978
0.000550747
0.000558357
0.000572786
0.000556395
0.00054212
0.000536694
0.000541419
0.000532304
0.000523825
0.000497658
0.000509147
0.000507074
0.000505316
0.000489119
0.000482856
0.000455779
0.000434748
0.000396733
0.000382897
0.000347602
0.000316132
0.000276211
0.00024787
0.000192255
0.00016483
0.000122379
7.23267e-05
1.75412e-05
0.0226223
0.0127395
0.0116351
0.0115676
0.0107208
0.0101982
0.00989205
0.0095981
0.00932855
0.00909445
0.00888012
0.00868111
0.00849358
0.00831901
0.00815146
0.00799537
0.00784342
0.00770306
0.007565
0.00743603
0.00731026
0.00719726
0.00708822
0.00698256
0.00688676
0.00679608
0.006731
0.00664462
0.00660565
0.00651343
0.00647746
0.00630196
0.00608777
0.00572772
0.00530182
0.00498199
0.00462771
0.00408537
0.00355167
0.00313221
0.00267362
0.00240324
0.0021232
0.00196712
0.00180573
0.00170418
0.00159149
0.00151885
0.0014296
0.00136164
0.0012875
0.00122943
0.0011635
0.00111682
0.00107257
0.00104445
0.00101415
0.000992469
0.000975911
0.00094675
0.000928352
0.000882031
0.000834735
0.000800679
0.000766916
0.000727777
0.000693773
0.000667043
0.000630541
0.000590454
0.000566141
0.000550866
0.000553163
0.000558352
0.000571773
0.000555793
0.000541799
0.000535926
0.000539897
0.000530696
0.000522814
0.000498443
0.000509763
0.000506691
0.000504082
0.000487975
0.000481415
0.000454014
0.000433287
0.000396079
0.000381925
0.000346663
0.000315484
0.000276129
0.000246606
0.000191265
0.00016423
0.000122035
7.16546e-05
1.74205e-05
0.0219457
0.0128995
0.0117069
0.0115781
0.0107396
0.0102147
0.00990277
0.00960635
0.00933552
0.00910025
0.00888506
0.0086854
0.00849742
0.00832241
0.00815461
0.00799816
0.00784609
0.00770537
0.00756727
0.00743805
0.00731234
0.00719891
0.00708984
0.00698406
0.00688832
0.0067976
0.00673183
0.00664639
0.00660646
0.00651858
0.00648573
0.00633026
0.00615413
0.00587339
0.00552247
0.00519254
0.0047334
0.00412422
0.00356069
0.00313062
0.00267255
0.00239977
0.00212222
0.00196608
0.00180611
0.00170526
0.00159424
0.00152095
0.00143283
0.00136495
0.00129073
0.00123259
0.00116678
0.00111967
0.00107521
0.00104627
0.00101586
0.000993709
0.000976725
0.000948724
0.000929893
0.000883998
0.000837245
0.000801932
0.000767702
0.000728763
0.000694385
0.00066728
0.0006302
0.00059096
0.000568977
0.000554595
0.000555501
0.000558361
0.000570793
0.000555174
0.000541498
0.000535188
0.000538353
0.000528911
0.000521834
0.000499482
0.000510408
0.000506426
0.000502997
0.000486907
0.00047999
0.000452313
0.000431897
0.000395462
0.000380872
0.000345772
0.000315011
0.000276067
0.000245222
0.000190305
0.000163752
0.000121672
7.10219e-05
1.73135e-05
0.021344
0.013069
0.011779
0.0115882
0.0107582
0.0102308
0.00991327
0.00961443
0.00934235
0.00910594
0.00888991
0.00868962
0.00850122
0.00832577
0.00815774
0.00800093
0.00784875
0.00770765
0.00756951
0.00744003
0.00731437
0.00720051
0.00709142
0.00698547
0.00688978
0.00679897
0.00673257
0.00664789
0.00660699
0.00652306
0.006493
0.00635767
0.00622108
0.006022
0.00574506
0.00539653
0.00484047
0.00417201
0.00358028
0.00313885
0.00268018
0.00240362
0.00212678
0.00196884
0.00180934
0.00170851
0.00159857
0.00152419
0.00143689
0.00136876
0.0012944
0.00123609
0.00117022
0.00112278
0.00107807
0.00104798
0.00101738
0.000994698
0.000977294
0.000950317
0.000930952
0.000885544
0.000839654
0.000803216
0.000768322
0.000729567
0.000694842
0.000667313
0.000629884
0.000591732
0.000571779
0.000558129
0.000557772
0.000558421
0.000569712
0.000554449
0.000541272
0.000534528
0.000536853
0.000527003
0.000520947
0.000500709
0.000511022
0.000506266
0.000502023
0.000485891
0.000478601
0.000450685
0.000430603
0.00039495
0.000379793
0.000345001
0.000314684
0.000275961
0.000243801
0.000189411
0.000163314
0.000121313
7.03776e-05
1.72731e-05
0.0207941
0.0132224
0.0118455
0.0115977
0.0107768
0.0102469
0.00992366
0.00962243
0.0093491
0.00911154
0.00889471
0.00869379
0.00850499
0.00832911
0.00816085
0.00800369
0.00785139
0.00770993
0.00757172
0.00744198
0.00731636
0.00720206
0.00709292
0.00698681
0.00689118
0.0068003
0.00673327
0.00664943
0.00660755
0.00652755
0.00649998
0.00638497
0.00628833
0.00616947
0.00596267
0.00558741
0.00494512
0.00422541
0.00360795
0.00315462
0.00269469
0.00241336
0.00213604
0.0019748
0.00181507
0.00171354
0.00160406
0.00152829
0.00144148
0.00137284
0.00129845
0.00123983
0.0011737
0.00112604
0.00108101
0.00104954
0.00101869
0.000995467
0.000977663
0.000951561
0.000931543
0.000886677
0.000841926
0.000804513
0.000768753
0.000730137
0.000695129
0.000667111
0.000629556
0.000592836
0.000574604
0.000561437
0.000559995
0.000558629
0.000568481
0.00055357
0.000541127
0.000533977
0.000535371
0.000525062
0.000520209
0.000502012
0.000511551
0.00050617
0.000501111
0.000484919
0.000477255
0.000449131
0.000429443
0.000394568
0.000378747
0.000344385
0.000314464
0.000275745
0.000242429
0.000188569
0.000162899
0.000120937
6.97845e-05
1.72491e-05
0.0202749
0.0133533
0.0119064
0.0116067
0.0107952
0.0102628
0.009934
0.00963042
0.00935583
0.00911713
0.00889949
0.00869796
0.00850875
0.00833246
0.00816397
0.00800646
0.00785405
0.00771221
0.00757395
0.00744395
0.00731836
0.0072036
0.0070944
0.00698812
0.00689252
0.00680153
0.00673391
0.00665081
0.00660806
0.00653179
0.00650678
0.00641178
0.00635468
0.00631277
0.00617002
0.00576244
0.00504563
0.00428246
0.00364168
0.00317644
0.00271462
0.00242809
0.00214931
0.0019838
0.00182313
0.00172022
0.00161051
0.00153317
0.00144645
0.0013771
0.00130284
0.00124372
0.00117724
0.00112943
0.00108399
0.00105098
0.00101982
0.000996045
0.00097788
0.000952451
0.000931707
0.000887444
0.000844022
0.00080578
0.000768999
0.000730483
0.000695259
0.000666641
0.000629183
0.000594312
0.000577475
0.000564504
0.00056221
0.000558994
0.000567133
0.000552547
0.000541037
0.000533504
0.000533899
0.000523177
0.000519668
0.000503338
0.000512014
0.000506105
0.000500214
0.000483976
0.000475997
0.000447689
0.00042845
0.000394348
0.00037778
0.00034391
0.000314308
0.000275431
0.00024112
0.000187817
0.000162448
0.000120571
6.92011e-05
1.72923e-05
0.0197821
0.0134636
0.0119622
0.011615
0.0108133
0.0102785
0.0099443
0.00963844
0.00936259
0.00912274
0.00890429
0.00870214
0.00851253
0.00833581
0.0081671
0.00800924
0.00785672
0.00771451
0.00757619
0.00744591
0.00732034
0.00720514
0.00709585
0.00698939
0.00689379
0.00680273
0.00673447
0.00665221
0.0066086
0.00653606
0.00651359
0.00643831
0.00641962
0.00644923
0.00636357
0.0059212
0.00514134
0.00434176
0.00368023
0.00320298
0.00273888
0.00244663
0.00216583
0.00199534
0.00183321
0.0017282
0.00161764
0.00153863
0.0014517
0.00138149
0.00130742
0.00124768
0.00118083
0.00113285
0.0010869
0.00105229
0.00102075
0.000996424
0.000977912
0.000952982
0.000931489
0.0008879
0.000845858
0.000806934
0.000769061
0.000730663
0.000695262
0.000665912
0.000628817
0.000596132
0.00058031
0.000567298
0.000564397
0.000559501
0.00056575
0.000551458
0.000540959
0.000533091
0.000532408
0.000521406
0.000519295
0.000504624
0.000512396
0.000506017
0.000499289
0.000483062
0.000474861
0.000446385
0.000427642
0.000394292
0.000376895
0.000343534
0.00031419
0.000275026
0.000239871
0.000187142
0.000162018
0.000120199
6.86853e-05
1.73487e-05
0.019315
0.0135552
0.012013
0.0116224
0.010831
0.010294
0.00995456
0.00964651
0.0093694
0.00912839
0.00890912
0.00870636
0.00851633
0.00833919
0.00817025
0.00801204
0.0078594
0.00771683
0.00757843
0.0074479
0.00732233
0.00720669
0.0070973
0.00699067
0.00689504
0.00680387
0.00673498
0.00665345
0.00660904
0.00654002
0.00652021
0.00646379
0.00648163
0.00657671
0.00654056
0.00606396
0.00523182
0.00440224
0.00372225
0.00323333
0.00276659
0.00246843
0.00218506
0.00200933
0.00184514
0.00173736
0.00162543
0.00154466
0.0014573
0.00138609
0.00131208
0.00125163
0.00118456
0.00113627
0.00108975
0.00105352
0.00102154
0.00099664
0.000977775
0.000953133
0.000930947
0.000888121
0.000847353
0.000807908
0.000768984
0.000730717
0.000695158
0.000664937
0.000628497
0.00059824
0.000583056
0.000569857
0.000566585
0.000560107
0.000564391
0.00055036
0.000540868
0.000532672
0.000530947
0.0005198
0.000519055
0.000505849
0.000512738
0.0005059
0.000498352
0.0004822
0.000473863
0.000445234
0.000427037
0.000394409
0.000376097
0.000343216
0.000314082
0.000274581
0.00023867
0.000186571
0.000161586
0.000119847
6.81883e-05
1.74599e-05
0.0188726
0.0136291
0.0120587
0.0116287
0.010848
0.0103092
0.00996474
0.00965459
0.00937624
0.00913408
0.00891401
0.00871062
0.00852018
0.00834261
0.00817344
0.00801487
0.0078621
0.00771916
0.00758068
0.00744988
0.0073243
0.00720824
0.0070987
0.00699193
0.00689623
0.006805
0.00673543
0.00665471
0.0066095
0.00654395
0.00652677
0.00648836
0.00654026
0.00669345
0.00669944
0.00619168
0.00531704
0.00446305
0.00376694
0.00326652
0.00279703
0.0024926
0.00220634
0.00202519
0.00185858
0.00174743
0.00163371
0.00155108
0.00146319
0.00139092
0.00131666
0.0012555
0.00118837
0.0011396
0.00109247
0.00105467
0.00102217
0.000996686
0.000977435
0.000952916
0.000930135
0.000888148
0.000848414
0.000808645
0.000768801
0.000730669
0.000694957
0.000663772
0.000628266
0.000600525
0.000585657
0.000572208
0.00056872
0.000560782
0.00056312
0.000549319
0.000540719
0.000532206
0.000529561
0.000518402
0.00051886
0.000506978
0.000513026
0.00050572
0.000497407
0.000481396
0.000472977
0.00044426
0.000426618
0.000394642
0.000375393
0.000342948
0.000313957
0.000274116
0.000237544
0.000186085
0.000161198
0.000119498
6.77518e-05
1.75801e-05
0.0184537
0.0136864
0.0120992
0.0116338
0.0108643
0.010324
0.00997478
0.00966265
0.0093831
0.00913981
0.00891893
0.00871493
0.00852406
0.00834607
0.00817665
0.00801772
0.00786482
0.00772152
0.00758295
0.00745189
0.00732628
0.0072098
0.00710012
0.0069932
0.00689741
0.00680609
0.00673584
0.00665584
0.00660986
0.00654756
0.00653304
0.00651129
0.00659413
0.00679812
0.0068391
0.00630504
0.00539678
0.00452337
0.00381317
0.0033019
0.00282954
0.00251882
0.00222935
0.00204285
0.00187334
0.00175838
0.00164258
0.00155791
0.00146937
0.00139598
0.00132117
0.00125929
0.00119232
0.00114287
0.00109511
0.00105579
0.00102272
0.000996609
0.000976941
0.000952379
0.000929093
0.000887992
0.00084901
0.000809122
0.000768548
0.000730498
0.000694667
0.000662471
0.000628131
0.000602898
0.000588128
0.00057444
0.000570786
0.000561471
0.000561967
0.000548344
0.000540489
0.000531651
0.000528341
0.000517262
0.000518678
0.000508029
0.000513303
0.000505488
0.000496473
0.00048065
0.000472211
0.000443481
0.000426362
0.000394961
0.000374792
0.00034272
0.000313807
0.000273673
0.00023652
0.000185721
0.00016082
0.000119164
6.73285e-05
1.77342e-05
0.0180569
0.0137281
0.0121346
0.0116375
0.0108796
0.0103384
0.00998462
0.00967065
0.00938996
0.00914556
0.0089239
0.00871927
0.00852799
0.00834956
0.0081799
0.00802061
0.00786756
0.0077239
0.00758522
0.0074539
0.00732823
0.00721134
0.00710149
0.00699444
0.00689852
0.00680713
0.00673618
0.00665696
0.00661022
0.00655106
0.0065391
0.00653271
0.00664298
0.00688975
0.00695917
0.0064051
0.00547123
0.00458268
0.00386045
0.00333878
0.00286356
0.00254639
0.00225362
0.00206174
0.00188909
0.00176999
0.0016519
0.00156499
0.00147575
0.00140122
0.00132556
0.00126297
0.00119628
0.001146
0.00109761
0.00105685
0.00102317
0.000996403
0.000976275
0.000951571
0.000927828
0.000887632
0.00084913
0.000809339
0.000768245
0.000730177
0.000694273
0.000661099
0.000628107
0.000605252
0.000590445
0.000576586
0.000572727
0.000562143
0.000560951
0.000547467
0.000540171
0.000531033
0.000527279
0.000516353
0.000518488
0.000509
0.000513544
0.000505172
0.000495544
0.00047997
0.000471544
0.000442893
0.000426225
0.000395322
0.000374277
0.000342528
0.000313632
0.00027326
0.000235617
0.000185469
0.000160484
0.00011883
6.69495e-05
1.78908e-05
0.0176812
0.0137555
0.0121651
0.0116398
0.010894
0.0103522
0.00999422
0.00967856
0.00939678
0.00915132
0.00892888
0.00872365
0.00853194
0.00835309
0.00818317
0.00802354
0.00787033
0.00772631
0.00758752
0.00745593
0.0073302
0.00721291
0.00710287
0.00699569
0.0068996
0.00680813
0.00673648
0.00665795
0.00661047
0.00655419
0.0065447
0.00655196
0.00668578
0.00696778
0.00705949
0.00649232
0.00554013
0.00464032
0.00390787
0.00337665
0.00289861
0.00257514
0.00227895
0.00208181
0.00190573
0.00178232
0.00166178
0.00157233
0.0014823
0.00140661
0.00132993
0.00126662
0.00120024
0.00114905
0.00110004
0.00105792
0.00102362
0.000996128
0.000975501
0.000950533
0.000926351
0.000887074
0.000848829
0.000809294
0.000767865
0.000729691
0.000693784
0.000659694
0.000628162
0.000607526
0.000592637
0.000578707
0.000574579
0.000562773
0.000560049
0.000546683
0.000539794
0.000530373
0.000526386
0.000515652
0.000518343
0.000509936
0.000513783
0.000504785
0.000494673
0.000479383
0.00047094
0.00044248
0.000426194
0.000395714
0.000373853
0.000342364
0.000313445
0.000272911
0.000234846
0.000185353
0.000160155
0.000118501
6.65821e-05
1.80685e-05
0.0173254
0.0137697
0.0121907
0.0116406
0.0109072
0.0103654
0.0100035
0.00968633
0.00940354
0.00915705
0.00893387
0.00872805
0.00853593
0.00835666
0.00818648
0.00802649
0.00787312
0.00772875
0.00758982
0.00745796
0.00733214
0.00721446
0.0071042
0.00699689
0.00690061
0.00680907
0.0067367
0.00665889
0.00661066
0.00655711
0.00654988
0.00656925
0.00672256
0.00703194
0.00714042
0.00656757
0.00560374
0.00469602
0.00395518
0.00341502
0.00293428
0.00260452
0.00230493
0.00210251
0.00192293
0.00179516
0.00167209
0.00157985
0.00148893
0.00141205
0.00133426
0.00127021
0.00120408
0.00115196
0.00110235
0.00105895
0.00102402
0.000995758
0.000974598
0.000949295
0.000924665
0.000886305
0.000848181
0.000808974
0.00076734
0.000729052
0.000693223
0.000658309
0.000628255
0.000609649
0.000594686
0.00058078
0.000576328
0.000563359
0.000559243
0.000546007
0.000539389
0.00052972
0.000525604
0.000515099
0.000518236
0.000510826
0.000513984
0.00050432
0.000493899
0.000478887
0.00047033
0.000442218
0.00042624
0.000396101
0.000373496
0.000342245
0.000313256
0.000272617
0.000234201
0.000185346
0.000159868
0.000118172
6.62537e-05
1.82548e-05
0.0169885
0.0137716
0.0122115
0.01164
0.0109191
0.010378
0.0100125
0.00969392
0.00941021
0.00916274
0.00893884
0.00873246
0.00853992
0.00836024
0.0081898
0.00802947
0.00787592
0.0077312
0.00759213
0.00746002
0.00733409
0.00721604
0.00710555
0.00699811
0.00690161
0.00680999
0.00673688
0.00665969
0.00661074
0.00655965
0.00655449
0.00658409
0.00675274
0.00708234
0.00720245
0.00663098
0.00566166
0.00474918
0.00400161
0.00345347
0.0029702
0.00263448
0.00233146
0.00212385
0.00194063
0.00180858
0.00168292
0.0015876
0.00149565
0.00141753
0.00133862
0.00127383
0.00120786
0.00115481
0.00110465
0.00106001
0.00102445
0.000995338
0.000973616
0.000947897
0.000922789
0.00088533
0.000847259
0.000808372
0.000766648
0.000728278
0.000692604
0.000656986
0.00062834
0.000611617
0.000596632
0.000582783
0.000577998
0.000563924
0.000558515
0.000545421
0.000538985
0.000529087
0.000524957
0.000514684
0.000518194
0.000511708
0.000514185
0.000503841
0.000493263
0.000478467
0.000469716
0.0004421
0.000426339
0.000396464
0.0003732
0.00034218
0.000313104
0.000272399
0.000233665
0.000185447
0.000159618
0.000117856
6.59386e-05
1.84566e-05
0.0166694
0.0137624
0.0122278
0.0116378
0.0109298
0.0103898
0.0100211
0.00970131
0.00941676
0.00916836
0.00894379
0.00873686
0.00854393
0.00836384
0.00819314
0.00803246
0.00787874
0.00773368
0.00759445
0.00746207
0.00733601
0.00721759
0.00710684
0.00699928
0.00690252
0.00681081
0.00673696
0.00666041
0.00661071
0.0065619
0.0065585
0.00659672
0.00677666
0.00711933
0.00724645
0.00668321
0.00571415
0.00479975
0.00404711
0.0034917
0.00300608
0.00266454
0.00235821
0.00214537
0.00195853
0.00182235
0.00169415
0.00159555
0.00150241
0.00142295
0.00134296
0.00127743
0.00121149
0.00115754
0.00110686
0.00106108
0.00102485
0.000994835
0.000972507
0.00094635
0.000920723
0.000884141
0.000846111
0.000807485
0.00076579
0.00072739
0.000691928
0.000655763
0.000628385
0.000613414
0.000598463
0.000584638
0.000579553
0.000564493
0.000557862
0.000544932
0.000538599
0.000528485
0.000524409
0.00051436
0.000518178
0.000512562
0.000514348
0.000503351
0.000492741
0.000478097
0.000469093
0.00044211
0.000426458
0.000396774
0.000372952
0.00034219
0.000312999
0.000272253
0.000233194
0.000185609
0.000159457
0.000117558
6.56561e-05
1.8683e-05
0.0163671
0.013743
0.0122396
0.011634
0.0109392
0.0104009
0.0100293
0.00970845
0.00942317
0.0091739
0.00894868
0.00874124
0.00854791
0.00836743
0.00819648
0.00803547
0.00788156
0.00773616
0.00759677
0.00746414
0.00733795
0.00721917
0.00710814
0.00700046
0.00690341
0.00681161
0.00673702
0.006661
0.00661058
0.00656376
0.00656185
0.00660686
0.00679416
0.00714351
0.0072734
0.00672404
0.00576065
0.00484715
0.00409103
0.00352934
0.00304163
0.00269474
0.00238513
0.00216717
0.00197665
0.00183651
0.00170583
0.00160382
0.00150923
0.00142832
0.00134735
0.00128107
0.00121507
0.00116023
0.0011091
0.00106221
0.0010253
0.000994318
0.000971315
0.000944679
0.000918482
0.000882763
0.000844784
0.000806315
0.000764783
0.000726409
0.000691189
0.000654663
0.000628389
0.000615053
0.000600203
0.000586345
0.00058101
0.000565065
0.000557259
0.000544519
0.000538253
0.000527919
0.000523988
0.000514143
0.000518211
0.000513419
0.000514504
0.000502889
0.000492351
0.000477786
0.000468494
0.000442238
0.000426584
0.000397038
0.000372779
0.000342269
0.00031296
0.000272198
0.000232781
0.000185822
0.00015935
0.000117297
6.54021e-05
1.89322e-05
0.0160808
0.0137145
0.0122471
0.0116288
0.0109472
0.0104113
0.010037
0.00971532
0.00942941
0.00917934
0.00895352
0.00874558
0.00855189
0.00837103
0.00819982
0.00803848
0.00788438
0.00773865
0.00759908
0.00746619
0.00733983
0.00722071
0.00710938
0.00700157
0.00690421
0.0068123
0.00673695
0.00666146
0.0066103
0.00656525
0.00656447
0.00661477
0.0068058
0.00715559
0.00728459
0.0067539
0.00580141
0.00489151
0.00413346
0.00356623
0.0030767
0.00272466
0.00241193
0.00218888
0.00199478
0.00185083
0.00171781
0.00161237
0.00151605
0.00143356
0.00135172
0.00128467
0.00121851
0.00116282
0.00111129
0.00106336
0.00102574
0.000993753
0.00097
0.000942875
0.00091605
0.00088122
0.000843329
0.000804884
0.000763639
0.000725326
0.000690371
0.000653713
0.00062837
0.000616497
0.000601811
0.000587863
0.000582324
0.000565623
0.000556705
0.000544195
0.000537968
0.000527395
0.000523655
0.000513998
0.000518247
0.000514247
0.000514614
0.00050244
0.000492063
0.000477532
0.000467928
0.000442448
0.000426672
0.000397271
0.000372702
0.000342401
0.000312968
0.000272219
0.000232418
0.000186046
0.000159291
0.000117073
6.51967e-05
1.9228e-05
0.0158094
0.0136777
0.0122505
0.011622
0.0109538
0.0104208
0.0100443
0.0097219
0.00943546
0.00918467
0.00895828
0.00874988
0.00855583
0.0083746
0.00820315
0.00804148
0.00788719
0.00774115
0.0076014
0.00746825
0.00734173
0.00722227
0.00711063
0.00700269
0.006905
0.00681297
0.00673687
0.00666179
0.00660991
0.00656636
0.00656636
0.0066203
0.00681169
0.00715652
0.00728148
0.00677239
0.0058358
0.00493221
0.0041738
0.00360205
0.00311106
0.00275435
0.00243862
0.00221064
0.002013
0.00186535
0.00173006
0.00162127
0.00152292
0.00143878
0.00135617
0.00128832
0.00122192
0.00116538
0.00111353
0.0010646
0.00102626
0.000993213
0.000968632
0.000940961
0.000913449
0.000879549
0.00084178
0.000803216
0.000762363
0.000724117
0.000689473
0.000652946
0.000628365
0.000617745
0.000603295
0.00058922
0.000583496
0.000566152
0.000556185
0.00054393
0.000537762
0.000526937
0.000523439
0.000513958
0.000518323
0.000515075
0.000514719
0.000502045
0.000491887
0.000477371
0.000467437
0.000442706
0.000426709
0.00039754
0.000372735
0.000342528
0.000313043
0.00027233
0.000232117
0.000186296
0.000159237
0.00011688
6.50431e-05
1.95577e-05
0.015552
0.0136334
0.0122498
0.0116138
0.010959
0.0104294
0.0100511
0.00972817
0.00944132
0.00918986
0.00896295
0.00875411
0.00855973
0.00837815
0.00820646
0.00804448
0.00788999
0.00774363
0.00760368
0.00747028
0.00734357
0.00722378
0.0071118
0.00700372
0.00690567
0.00681349
0.00673663
0.00666194
0.00660931
0.00656702
0.00656744
0.0066237
0.0068125
0.00714735
0.00726588
0.00677993
0.0058641
0.00496954
0.00421227
0.0036368
0.00314463
0.00278347
0.00246494
0.00223217
0.00203113
0.00187987
0.00174242
0.00163042
0.00152982
0.00144396
0.0013606
0.00129188
0.00122522
0.00116785
0.00111573
0.00106589
0.0010268
0.000992656
0.000967185
0.000938931
0.000910687
0.000877749
0.000840138
0.000801356
0.00076094
0.000722771
0.000688512
0.00065236
0.000628397
0.000618775
0.000604605
0.000590395
0.000584482
0.000566626
0.0005557
0.00054371
0.000537633
0.000526569
0.000523299
0.000513986
0.000518408
0.000515869
0.000514785
0.000501684
0.000491787
0.000477307
0.000467028
0.000442964
0.000426696
0.000397894
0.000372844
0.000342612
0.000313174
0.00027251
0.000231856
0.000186554
0.000159197
0.000116708
6.49448e-05
1.99505e-05
0.015308
0.0135825
0.0122453
0.011604
0.0109627
0.0104372
0.0100574
0.0097341
0.00944695
0.00919491
0.00896753
0.00875828
0.00856357
0.00838167
0.00820973
0.00804745
0.00789277
0.00774611
0.00760597
0.00747233
0.00734541
0.0072253
0.00711299
0.00700475
0.00690634
0.006814
0.00673639
0.00666197
0.00660861
0.00656731
0.00656779
0.006625
0.0068086
0.00712937
0.00723959
0.00677627
0.00588569
0.00500291
0.00424833
0.00367015
0.00317722
0.00281209
0.00249098
0.00225365
0.00204928
0.0018944
0.00175488
0.00163988
0.00153684
0.00144923
0.0013651
0.00129546
0.00122852
0.00117032
0.00111796
0.0010673
0.00102744
0.00099215
0.000965728
0.000936828
0.000907811
0.000875814
0.00083841
0.000799363
0.000759348
0.000721288
0.000687521
0.000651938
0.00062849
0.000619612
0.000605745
0.000591428
0.000585319
0.000567034
0.00055523
0.000543514
0.000537574
0.000526308
0.000523274
0.000514115
0.000518551
0.000516665
0.000514857
0.0005014
0.000491782
0.000477347
0.00046673
0.00044322
0.000426679
0.000398356
0.000373001
0.000342648
0.000313378
0.000272761
0.00023164
0.000186845
0.000159152
0.000116556
6.4902e-05
2.03668e-05
0.0150764
0.0135258
0.0122371
0.0115929
0.010965
0.0104441
0.0100632
0.00973968
0.00945235
0.0091998
0.00897199
0.00876238
0.00856737
0.00838514
0.00821298
0.0080504
0.00789552
0.00774856
0.00760821
0.00747432
0.00734719
0.00722675
0.00711408
0.00700568
0.00690687
0.00681435
0.00673596
0.00666176
0.00660764
0.0065671
0.00656728
0.00662442
0.00680069
0.00710385
0.00720434
0.00676209
0.00590098
0.00503268
0.00428229
0.00370222
0.00320883
0.00283999
0.00251651
0.00227483
0.00206728
0.00190878
0.0017673
0.00164952
0.001544
0.00145457
0.00136957
0.00129894
0.00123173
0.00117272
0.00112014
0.00106874
0.00102812
0.000991659
0.000964225
0.000934641
0.000904846
0.000873739
0.000836594
0.000797276
0.000757576
0.000719686
0.00068651
0.000651643
0.000628628
0.000620237
0.000606668
0.000592306
0.000586006
0.000567361
0.000554767
0.00054334
0.000537567
0.000526148
0.000523321
0.000514307
0.000518731
0.000517428
0.000514895
0.000501165
0.000491837
0.00047746
0.000466517
0.00044349
0.000426687
0.000398889
0.000373182
0.000342678
0.000313618
0.000273046
0.000231454
0.00018715
0.000159117
0.000116426
6.49037e-05
2.08357e-05
0.0148564
0.0134639
0.0122253
0.0115802
0.0109658
0.01045
0.0100684
0.00974488
0.0094575
0.00920452
0.00897633
0.00876638
0.0085711
0.00838857
0.00821618
0.00805333
0.00789824
0.007751
0.00761044
0.00747631
0.00734896
0.00722822
0.00711518
0.00700661
0.00690739
0.00681467
0.00673552
0.00666144
0.00660656
0.00656651
0.00656607
0.00662202
0.00678919
0.00707207
0.00716158
0.00673777
0.00590948
0.00505828
0.00431361
0.00373267
0.00323928
0.00286721
0.00254161
0.00229588
0.00208523
0.00192307
0.00177967
0.00165936
0.00155139
0.00146011
0.00137415
0.00130247
0.00123496
0.00117514
0.00112232
0.00107026
0.0010289
0.000991285
0.000962741
0.000932402
0.000901863
0.000871553
0.000834682
0.000795096
0.000755642
0.000718011
0.000685498
0.000651444
0.000628803
0.000620677
0.000607404
0.000593088
0.000586586
0.000567602
0.000554302
0.000543181
0.000537602
0.000526097
0.000523488
0.000514601
0.000518996
0.000518194
0.000514946
0.00050102
0.000491979
0.000477648
0.00046639
0.000443807
0.000426759
0.00039947
0.000373377
0.000342734