/*--------------------------------*- C++ -*----------------------------------*\
| =========                 |                                                 |
| \\      /  F ield         | OpenFOAM: The Open Source CFD Toolbox           |
|  \\    /   O peration     | Version:  3.0.0                                 |
|   \\  /    A nd           | Web:      www.OpenFOAM.org                      |
|    \\/     M anipulation  |                                                 |
\*---------------------------------------------------------------------------*/
FoamFile
{
    version     2.0;
    format      ascii;
    class       surfaceScalarField;
    location    "100";
    object      phi;
}
// * * * * * * * * * * * * * * * * * * * * * * * * * * * * * * * * * * * * * //

dimensions      [0 3 -1 0 0 0 0];

internalField   nonuniform List<scalar> 
19800
(
0.00186452
0.000143079
0.00177876
8.57609e-05
0.00173881
3.99559e-05
0.00170774
3.10682e-05
0.00168049
2.7254e-05
0.00165624
2.4251e-05
0.00163364
2.26027e-05
0.00161208
2.15701e-05
0.00159143
2.06467e-05
0.00157168
1.97578e-05
0.0015528
1.88824e-05
0.00153479
1.80104e-05
0.00151765
1.71385e-05
0.00150139
1.627e-05
0.00148597
1.54082e-05
0.0014714
1.45781e-05
0.00145762
1.37731e-05
0.00144461
1.30224e-05
0.0014323
1.23024e-05
0.00142069
1.16353e-05
0.00140968
1.09896e-05
0.00139927
1.04275e-05
0.00138938
9.88519e-06
0.00138002
9.41978e-06
0.00137108
8.94472e-06
0.00136258
8.55301e-06
0.00135448
8.13527e-06
0.00134669
7.83757e-06
0.00133927
7.55514e-06
0.00133195
7.27074e-06
0.00132544
7.09341e-06
0.00131939
5.4877e-06
0.00131578
3.90033e-06
0.00131129
3.89101e-06
0.00132417
-1.35652e-05
0.00136893
-4.39936e-05
0.0014257
-5.62283e-05
0.00147243
-4.7329e-05
0.00150579
-3.35863e-05
0.00152836
-2.25072e-05
0.00154328
-1.52332e-05
0.00155381
-1.02331e-05
0.00156081
-7.15231e-06
0.00156598
-4.99288e-06
0.00156942
-3.52984e-06
0.00157191
-2.41077e-06
0.00157348
-1.63215e-06
0.0015746
-1.05041e-06
0.00157528
-7.27057e-07
0.00157577
-4.57812e-07
0.00157606
-3.37201e-07
0.00157624
-1.42452e-07
0.0015762
-1.65191e-08
0.00157601
2.19876e-07
0.00157555
4.34409e-07
0.00157508
5.51432e-07
0.00157438
7.02428e-07
0.00157346
9.52805e-07
0.00157234
1.17015e-06
0.00157119
1.12738e-06
0.00157031
9.11624e-07
0.0015697
5.96031e-07
0.00156925
4.42407e-07
0.00156888
3.58308e-07
0.00156867
1.87566e-07
0.00156854
1.34168e-07
0.00156845
7.18842e-08
0.00156837
1.08601e-07
0.00156805
3.1139e-07
0.00156758
5.0507e-07
0.00156726
3.20367e-07
0.00156749
-2.04106e-07
0.00156806
-5.33745e-07
0.00156851
-4.64123e-07
0.00156878
-2.5388e-07
0.00156894
-1.64906e-07
0.00156914
-1.7089e-07
0.00156931
-1.87609e-07
0.00156945
-1.14768e-07
0.00156952
-5.75042e-08
0.00156959
-4.23354e-08
0.00156982
-2.24729e-07
0.00157025
-3.79258e-07
0.00157062
-3.74758e-07
0.00157093
-2.90261e-07
0.00157115
-2.58495e-07
0.00157137
-2.16461e-07
0.00157149
-1.34461e-07
0.00157156
-4.28741e-08
0.00157159
-5.77743e-08
0.0015717
-8.09952e-08
0.0015717
-7.0435e-08
0.00157179
-6.49509e-08
0.00157196
-8.20979e-08
0.00157185
8.7332e-09
0.00157159
5.17901e-08
0.0015718
2.18808e-08
0.00157193
-3.70942e-08
0.00157171
6.62435e-08
-6.49907e-09
0.00201343
0.000170152
0.0019726
0.000126587
0.00193998
7.25847e-05
0.00191487
5.61781e-05
0.00189471
4.74137e-05
0.00187764
4.13291e-05
0.00186236
3.78818e-05
0.00184814
3.57932e-05
0.00183457
3.42153e-05
0.00182142
3.29145e-05
0.00180853
3.17685e-05
0.00179585
3.07017e-05
0.00178333
2.96547e-05
0.00177097
2.86274e-05
0.00175878
2.75959e-05
0.00174677
2.6592e-05
0.00173496
2.55765e-05
0.00172338
2.46087e-05
0.00171204
2.36392e-05
0.00170097
2.27185e-05
0.00169017
2.17792e-05
0.00167967
2.09421e-05
0.00166946
2.01046e-05
0.00165957
1.93589e-05
0.00164993
1.85843e-05
0.00164063
1.79092e-05
0.00163157
1.72172e-05
0.00162284
1.6619e-05
0.00161435
1.61412e-05
0.00160603
1.55499e-05
0.00159801
1.55716e-05
0.00159026
1.273e-05
0.00158367
1.06786e-05
0.00157804
8.95218e-06
0.00159247
-2.85844e-05
0.00163006
-8.1078e-05
0.00166873
-9.45545e-05
0.00169792
-7.68734e-05
0.00171889
-5.4696e-05
0.00173379
-3.7371e-05
0.00174428
-2.59132e-05
0.00175193
-1.77002e-05
0.00175721
-1.25193e-05
0.00176108
-8.76313e-06
0.0017637
-6.191e-06
0.00176555
-4.21964e-06
0.00176676
-2.87194e-06
0.00176759
-1.84004e-06
0.00176805
-1.20758e-06
0.00176828
-6.74583e-07
0.00176833
-4.09506e-07
0.00176834
-1.31907e-07
0.00176822
6.36838e-08
0.00176801
4.54522e-07
0.00176765
7.80624e-07
0.00176722
1.0359e-06
0.00176659
1.33732e-06
0.00176584
1.714e-06
0.00176499
2.0507e-06
0.00176413
1.97609e-06
0.00176344
1.63038e-06
0.00176286
1.15858e-06
0.00176244
8.5891e-07
0.00176215
6.45928e-07
0.00176193
3.94459e-07
0.00176176
3.07558e-07
0.00176161
2.13162e-07
0.00176151
2.16897e-07
0.00176132
4.97847e-07
0.00176102
8.26996e-07
0.00176078
5.64199e-07
0.00176076
-1.64698e-07
0.00176089
-6.50263e-07
0.00176106
-6.33964e-07
0.00176122
-4.05832e-07
0.00176135
-2.95569e-07
0.00176149
-2.9405e-07
0.00176163
-3.41571e-07
0.00176177
-2.41928e-07
0.00176189
-1.6993e-07
0.00176201
-1.44918e-07
0.00176217
-3.8357e-07
0.00176245
-6.23013e-07
0.00176274
-6.76701e-07
0.00176301
-5.47996e-07
0.00176323
-4.99154e-07
0.00176344
-4.27151e-07
0.00176359
-2.96841e-07
0.00176371
-1.4424e-07
0.00176378
-1.4329e-07
0.00176389
-1.80354e-07
0.00176396
-1.86464e-07
0.00176405
-1.37977e-07
0.0017642
-1.74686e-07
0.00176417
-2.35589e-08
0.00176407
3.61701e-08
0.00176426
-2.32023e-08
0.0017644
-1.244e-07
0.00176431
5.74361e-08
-6.03427e-09
0.00206687
0.00017723
0.00204681
0.000146642
0.00202485
9.45509e-05
0.00200567
7.53538e-05
0.00198966
6.34316e-05
0.00197606
5.49272e-05
0.00196412
4.98282e-05
0.00195329
4.66207e-05
0.00194323
4.42818e-05
0.00193367
4.24716e-05
0.00192445
4.09903e-05
0.00191545
3.97065e-05
0.00190658
3.85207e-05
0.0018978
3.74129e-05
0.00188906
3.63302e-05
0.00188036
3.53007e-05
0.00187167
3.4262e-05
0.001863
3.32843e-05
0.00185434
3.22958e-05
0.00184571
3.13587e-05
0.0018371
3.03758e-05
0.00182856
2.95015e-05
0.00182006
2.86061e-05
0.00181165
2.78003e-05
0.00180329
2.69395e-05
0.00179506
2.61785e-05
0.0017869
2.53991e-05
0.00177887
2.46799e-05
0.00177095
2.41383e-05
0.00176306
2.34187e-05
0.00175555
2.34422e-05
0.00174827
1.9697e-05
0.0017413
1.78468e-05
0.00173749
1.24181e-05
0.00175034
-4.17888e-05
0.00177512
-0.000105571
0.00179669
-0.000115945
0.00181299
-9.33839e-05
0.00182553
-6.73111e-05
0.00183514
-4.69572e-05
0.00184236
-3.32446e-05
0.0018478
-2.30455e-05
0.00185162
-1.63876e-05
0.00185439
-1.14757e-05
0.00185625
-8.07925e-06
0.00185753
-5.47824e-06
0.00185835
-3.71374e-06
0.00185886
-2.32569e-06
0.00185908
-1.44301e-06
0.00185913
-7.1382e-07
0.00185903
-3.2722e-07
0.0018589
8.63679e-09
0.00185868
2.68468e-07
0.00185838
7.57458e-07
0.00185799
1.16213e-06
0.00185751
1.55093e-06
0.00185688
1.96855e-06
0.00185619
2.40471e-06
0.0018555
2.76435e-06
0.00185483
2.63134e-06
0.00185428
2.19595e-06
0.00185381
1.62114e-06
0.00185348
1.19083e-06
0.00185324
8.80398e-07
0.00185303
5.9896e-07
0.00185286
4.73401e-07
0.00185271
3.6567e-07
0.00185257
3.6166e-07
0.0018524
6.64612e-07
0.00185221
1.03376e-06
0.00185205
7.19291e-07
0.00185196
-6.64766e-08
0.00185195
-6.28536e-07
0.00185201
-6.92032e-07
0.00185212
-5.10964e-07
0.00185223
-4.09983e-07
0.00185235
-3.99579e-07
0.00185246
-4.67016e-07
0.0018526
-3.72759e-07
0.00185275
-3.13055e-07
0.00185289
-2.77291e-07
0.00185305
-5.32782e-07
0.00185325
-8.09774e-07
0.00185349
-9.18178e-07
0.00185374
-7.84899e-07
0.00185394
-7.19179e-07
0.00185413
-6.10765e-07
0.00185428
-4.54735e-07
0.00185441
-2.66359e-07
0.00185452
-2.53916e-07
0.00185464
-2.90703e-07
0.00185472
-2.92178e-07
0.0018548
-2.13046e-07
0.00185493
-2.66015e-07
0.00185496
-9.77805e-08
0.00185495
-3.43658e-08
0.00185509
-7.36731e-08
0.00185518
-1.82083e-07
0.00185517
4.90289e-09
-5.84354e-08
0.00210981
0.000175357
0.00210007
0.000156378
0.00208526
0.000109361
0.00207061
9.00131e-05
0.00205752
7.65209e-05
0.00204604
6.64045e-05
0.00203588
5.99888e-05
0.00202674
5.57643e-05
0.00201836
5.26609e-05
0.00201055
5.02885e-05
0.00200315
4.83942e-05
0.00199604
4.68138e-05
0.00198914
4.54164e-05
0.00198239
4.41666e-05
0.00197573
4.29861e-05
0.00196914
4.19002e-05
0.00196256
4.08285e-05
0.00195601
3.98465e-05
0.00194944
3.88643e-05
0.00194286
3.79486e-05
0.00193624
3.69834e-05
0.00192961
3.61414e-05
0.00192294
3.52794e-05
0.00191626
3.45077e-05
0.00190954
3.36696e-05
0.00190282
3.29282e-05
0.00189606
3.21803e-05
0.00188931
3.14594e-05
0.00188255
3.09544e-05
0.00187573
3.02079e-05
0.00186925
3.01732e-05
0.00186274
2.59015e-05
0.00185624
2.44221e-05
0.00185489
1.34027e-05
0.00186462
-5.18323e-05
0.00187707
-0.00011783
0.00188631
-0.000125046
0.00189415
-0.000101361
0.00190121
-7.44219e-05
0.00190723
-5.297e-05
0.0019121
-3.81877e-05
0.00191594
-2.68154e-05
0.00191866
-1.91384e-05
0.0019206
-1.3374e-05
0.00192187
-9.36575e-06
0.0019227
-6.29224e-06
0.0019232
-4.22197e-06
0.00192344
-2.55557e-06
0.00192347
-1.47916e-06
0.00192338
-6.20335e-07
0.00192319
-1.41758e-07
0.00192296
2.42238e-07
0.00192265
5.64329e-07
0.00192231
1.11046e-06
0.00192189
1.58006e-06
0.00192137
2.0903e-06
0.00192075
2.58972e-06
0.00192012
3.04195e-06
0.00191951
3.38403e-06
0.00191895
3.18424e-06
0.00191848
2.67959e-06
0.00191807
2.02357e-06
0.00191779
1.47531e-06
0.00191758
1.08361e-06
0.00191739
7.85755e-07
0.00191724
6.26123e-07
0.00191708
5.2071e-07
0.00191692
5.29117e-07
0.00191676
8.17569e-07
0.00191663
1.17429e-06
0.00191651
8.36557e-07
0.00191641
4.68297e-08
0.00191634
-5.55638e-07
0.00191635
-7.03761e-07
0.00191644
-5.90871e-07
0.00191654
-5.1106e-07
0.00191665
-5.05275e-07
0.00191677
-5.87396e-07
0.00191691
-5.11333e-07
0.00191706
-4.62446e-07
0.00191721
-4.22493e-07
0.00191737
-6.8961e-07
0.00191755
-9.77289e-07
0.00191775
-1.12214e-06
0.00191798
-1.00309e-06
0.00191817
-9.23646e-07
0.00191833
-7.69553e-07
0.00191847
-6.02797e-07
0.00191861
-4.04205e-07
0.00191874
-3.82315e-07
0.00191886
-4.04502e-07
0.00191894
-3.92844e-07
0.00191904
-3.04025e-07
0.00191915
-3.60386e-07
0.00191919
-1.61989e-07
0.00191921
-9.58429e-08
0.00191933
-1.4261e-07
0.00191941
-2.40665e-07
0.00191943
-4.31244e-08
-9.1455e-08
0.00214895
0.000168894
0.00214523
0.000160092
0.00213556
0.000119038
0.00212462
0.000100954
0.00211408
8.70563e-05
0.0021044
7.60902e-05
0.0020956
6.87852e-05
0.0020876
6.37649e-05
0.00208026
6.00028e-05
0.00207345
5.7103e-05
0.00206705
5.47921e-05
0.00206098
5.28859e-05
0.00205516
5.12369e-05
0.00204953
4.97966e-05
0.00204405
4.8473e-05
0.00203866
4.72847e-05
0.00203335
4.61401e-05
0.00202809
4.51148e-05
0.00202284
4.41075e-05
0.00201761
4.31875e-05
0.00201236
4.22282e-05
0.0020071
4.1408e-05
0.0020018
4.0577e-05
0.00199649
3.98458e-05
0.00199111
3.90505e-05
0.0019857
3.83514e-05
0.00198022
3.76708e-05
0.00197471
3.69964e-05
0.00196914
3.65655e-05
0.00196348
3.58644e-05
0.00195811
3.57516e-05
0.00195248
3.13823e-05
0.00194699
3.00381e-05
0.00194721
1.30234e-05
0.00195296
-5.7723e-05
0.00195615
-0.00012092
0.0019577
-0.000126515
0.00196026
-0.000104018
0.00196374
-7.79379e-05
0.0019673
-5.65225e-05
0.00197045
-4.13814e-05
0.00197307
-2.9402e-05
0.00197496
-2.10516e-05
0.00197628
-1.46625e-05
0.00197709
-1.019e-05
0.00197757
-6.76531e-06
0.0019778
-4.4614e-06
0.00197784
-2.58489e-06
0.00197772
-1.36903e-06
0.00197752
-4.22481e-07
0.00197726
1.18321e-07
0.00197696
5.45253e-07
0.00197659
9.21617e-07
0.00197621
1.50212e-06
0.00197576
2.02464e-06
0.00197523
2.63521e-06
0.00197463
3.18566e-06
0.00197404
3.63089e-06
0.0019735
3.93604e-06
0.00197301
3.67266e-06
0.00197259
3.1079e-06
0.00197222
2.38615e-06
0.00197196
1.73651e-06
0.00197177
1.26681e-06
0.0019716
9.51254e-07
0.00197146
7.70936e-07
0.0019713
6.74201e-07
0.00197113
7.03765e-07
0.00197099
9.60108e-07
0.0019709
1.2738e-06
0.0019708
9.32707e-07
0.00197069
1.61014e-07
0.0019706
-4.63018e-07
0.00197059
-6.96298e-07
0.00197066
-6.58022e-07
0.00197076
-6.06077e-07
0.00197087
-6.17488e-07
0.001971
-7.13349e-07
0.00197114
-6.50548e-07
0.00197129
-6.08543e-07
0.00197145
-5.74834e-07
0.00197161
-8.53412e-07
0.00197178
-1.13407e-06
0.00197196
-1.30371e-06
0.00197216
-1.19442e-06
0.00197233
-1.10378e-06
0.00197248
-9.12696e-07
0.00197261
-7.42944e-07
0.00197276
-5.48282e-07
0.00197289
-5.18594e-07
0.00197301
-5.11849e-07
0.00197309
-4.91981e-07
0.0019732
-4.00144e-07
0.0019733
-4.39949e-07
0.00197335
-2.42257e-07
0.00197338
-1.78234e-07
0.00197349
-2.00615e-07
0.00197356
-2.8659e-07
0.00197358
-1.01534e-07
-1.47879e-07
0.0021863
0.000160195
0.00218638
0.000160007
0.0021805
0.000124926
0.00217264
0.000108811
0.00216441
9.52863e-05
0.00215641
8.40899e-05
0.00214889
7.63123e-05
0.00214189
7.07606e-05
0.0021354
6.6501e-05
0.00212933
6.31683e-05
0.00212364
6.0489e-05
0.00211825
5.82769e-05
0.00211311
5.63752e-05
0.00210817
5.47316e-05
0.0021034
5.32433e-05
0.00209876
5.19271e-05
0.00209422
5.06813e-05
0.00208975
4.9582e-05
0.00208534
4.85211e-05
0.00208096
4.75681e-05
0.0020766
4.65895e-05
0.00207225
4.57659e-05
0.00206788
4.49468e-05
0.00206351
4.42381e-05
0.00205909
4.34741e-05
0.00205466
4.28068e-05
0.00205015
4.21877e-05
0.00204561
4.15604e-05
0.00204102
4.11936e-05
0.00203634
4.05283e-05
0.0020319
4.03298e-05
0.00202706
3.60302e-05
0.0020227
3.44074e-05
0.00202335
1.21192e-05
0.0020252
-5.97296e-05
0.00202227
-0.000117896
0.00201917
-0.000123349
0.0020184
-0.000103317
0.00201947
-7.90323e-05
0.00202126
-5.83136e-05
0.00202311
-4.32685e-05
0.0020248
-3.10521e-05
0.00202603
-2.22986e-05
0.00202685
-1.54595e-05
0.0020273
-1.06473e-05
0.00202751
-6.9659e-06
0.00202752
-4.47844e-06
0.00202739
-2.45451e-06
0.00202716
-1.1409e-06
0.00202688
-1.38533e-07
0.00202656
4.36577e-07
0.00202621
9.01378e-07
0.0020258
1.32544e-06
0.00202538
1.92392e-06
0.00202491
2.49179e-06
0.00202438
3.17946e-06
0.00202381
3.75712e-06
0.00202326
4.18211e-06
0.00202277
4.4402e-06
0.00202232
4.11581e-06
0.00202194
3.49572e-06
0.0020216
2.71883e-06
0.00202135
1.98439e-06
0.00202118
1.43982e-06
0.00202103
1.10282e-06
0.00202088
9.12157e-07
0.00202073
8.23219e-07
0.00202057
8.74351e-07
0.00202043
1.09292e-06
0.00202037
1.34678e-06
0.00202028
1.0158e-06
0.00202017
2.74462e-07
0.00202008
-3.61017e-07
0.00202006
-6.79777e-07
0.00202012
-7.17306e-07
0.00202021
-6.96815e-07
0.00202033
-7.33918e-07
0.00202046
-8.45157e-07
0.00202061
-7.94229e-07
0.00202075
-7.54551e-07
0.00202092
-7.37544e-07
0.00202109
-1.0202e-06
0.00202124
-1.28378e-06
0.00202141
-1.46935e-06
0.00202158
-1.36537e-06
0.00202174
-1.26376e-06
0.00202187
-1.05032e-06
0.00202201
-8.83016e-07
0.00202216
-6.96599e-07
0.0020223
-6.58989e-07
0.0020224
-6.16174e-07
0.0020225
-5.93059e-07
0.0020226
-5.00778e-07
0.00202269
-5.15734e-07
0.00202274
-3.08488e-07
0.00202279
-2.42993e-07
0.00202288
-2.68201e-07
0.00202295
-3.39162e-07
0.00202297
-1.47521e-07
-1.79098e-07
0.00222292
0.000150562
0.00222544
0.00015749
0.00222235
0.000128016
0.00221701
0.000114151
0.00221082
0.000101476
0.00220441
9.05023e-05
0.00219812
8.26061e-05
0.0021921
7.6778e-05
0.00218641
7.22e-05
0.00218102
6.85547e-05
0.00217592
6.55873e-05
0.00217108
6.31188e-05
0.00216646
6.09948e-05
0.00216203
5.91608e-05
0.00215777
5.75119e-05
0.00215363
5.60621e-05
0.00214961
5.47061e-05
0.00214567
5.35175e-05
0.00214181
5.23858e-05
0.002138
5.13799e-05
0.00213423
5.03637e-05
0.00213048
4.95147e-05
0.00212675
4.86855e-05
0.00212302
4.79771e-05
0.00211927
4.72264e-05
0.00211551
4.65725e-05
0.00211171
4.59984e-05
0.00210788
4.5408e-05
0.00210401
4.50917e-05
0.00210008
4.44618e-05
0.00209635
4.41857e-05
0.00209216
4.01654e-05
0.00208879
3.78595e-05
0.0020891
1.17565e-05
0.00208757
-5.82364e-05
0.00208077
-0.000111053
0.00207484
-0.00011739
0.00207189
-0.00010042
0.00207126
-7.84167e-05
0.00207175
-5.88009e-05
0.00207259
-4.4142e-05
0.00207352
-3.19585e-05
0.00207421
-2.30021e-05
0.00207463
-1.58697e-05
0.00207479
-1.08149e-05
0.00207478
-6.95256e-06
0.00207462
-4.32255e-06
0.00207437
-2.20038e-06
0.00207405
-8.2154e-07
0.0020737
2.14128e-07
0.00207333
7.99685e-07
0.00207294
1.29701e-06
0.0020725
1.75801e-06
0.00207206
2.36541e-06
0.00207158
2.97111e-06
0.00207105
3.71245e-06
0.00207051
4.29908e-06
0.00207
4.6975e-06
0.00206954
4.90294e-06
0.00206913
4.52425e-06
0.00206877
3.85236e-06
0.00206846
3.02731e-06
0.00206823
2.22281e-06
0.00206806
1.60798e-06
0.00206791
1.24701e-06
0.00206777
1.05133e-06
0.00206763
9.65217e-07
0.00206747
1.03365e-06
0.00206735
1.21384e-06
0.0020673
1.40238e-06
0.00206722
1.0897e-06
0.00206711
3.86389e-07
0.00206702
-2.60554e-07
0.002067
-6.62096e-07
0.00206705
-7.70237e-07
0.00206714
-7.86041e-07
0.00206726
-8.51968e-07
0.0020674
-9.8217e-07
0.00206755
-9.39848e-07
0.0020677
-9.03574e-07
0.00206787
-9.05059e-07
0.00206803
-1.18299e-06
0.00206818
-1.42471e-06
0.00206833
-1.61962e-06
0.00206849
-1.51795e-06
0.00206863
-1.40751e-06
0.00206876
-1.18172e-06
0.0020689
-1.02142e-06
0.00206905
-8.4332e-07
0.00206918
-7.96878e-07
0.00206929
-7.17823e-07
0.00206938
-6.93686e-07
0.00206948
-5.9615e-07
0.00206956
-5.78533e-07
0.00206961
-3.87928e-07
0.00206966
-3.23762e-07
0.00206975
-3.22273e-07
0.00206981
-3.80073e-07
0.00206984
-2.03302e-07
-2.3162e-07
0.00225942
0.000140711
0.00226345
0.000153457
0.0022624
0.000129062
0.00225908
0.000117478
0.00225465
0.000105909
0.00224969
9.54611e-05
0.00224458
8.7717e-05
0.00223952
8.18327e-05
0.00223462
7.71056e-05
0.0022299
7.32746e-05
0.00222538
7.01108e-05
0.00222105
6.74526e-05
0.00221689
6.51519e-05
0.00221289
6.31593e-05
0.00220903
6.13692e-05
0.0022053
5.97969e-05
0.00220167
5.83353e-05
0.00219813
5.70568e-05
0.00219466
5.58506e-05
0.00219126
5.47842e-05
0.00218791
5.37212e-05
0.00218459
5.28352e-05
0.0021813
5.19853e-05
0.00217802
5.12636e-05
0.00217474
5.05128e-05
0.00217147
4.986e-05
0.00216817
4.93149e-05
0.00216485
4.87456e-05
0.00216151
4.8459e-05
0.00215813
4.78289e-05
0.00215491
4.74858e-05
0.00215123
4.37202e-05
0.00214863
4.0453e-05
0.00214818
1.20268e-05
0.00214389
-5.40359e-05
0.00213466
-0.00010178
0.00212696
-0.000109644
0.00212252
-9.60295e-05
0.00212064
-7.65564e-05
0.00212013
-5.82858e-05
0.00212019
-4.42185e-05
0.00212049
-3.22433e-05
0.00212073
-2.3248e-05
0.00212082
-1.59517e-05
0.00212074
-1.07419e-05
0.00212056
-6.75871e-06
0.00212026
-4.02386e-06
0.0021199
-1.84304e-06
0.00211951
-4.27405e-07
0.0021191
6.20038e-07
0.00211869
1.2048e-06
0.00211827
1.7253e-06
0.00211781
2.20884e-06
0.00211736
2.82142e-06
0.00211687
3.46022e-06
0.00211636
4.23403e-06
0.00211584
4.81792e-06
0.00211536
5.18479e-06
0.00211493
5.33499e-06
0.00211455
4.90538e-06
0.00211422
4.18538e-06
0.00211393
3.31656e-06
0.0021137
2.45357e-06
0.00211353
1.77519e-06
0.00211339
1.38894e-06
0.00211325
1.18773e-06
0.00211311
1.09939e-06
0.00211297
1.17811e-06
0.00211286
1.32166e-06
0.00211282
1.44775e-06
0.00211275
1.1584e-06
0.00211264
4.98414e-07
0.00211255
-1.63817e-07
0.00211253
-6.45771e-07
0.00211258
-8.18394e-07
0.00211267
-8.73983e-07
0.00211279
-9.70054e-07
0.00211293
-1.11965e-06
0.00211308
-1.08998e-06
0.00211324
-1.0591e-06
0.00211341
-1.07625e-06
0.00211357
-1.34207e-06
0.00211371
-1.56122e-06
0.00211385
-1.75831e-06
0.00211399
-1.65614e-06
0.00211412
-1.54195e-06
0.00211425
-1.31344e-06
0.00211439
-1.15933e-06
0.00211453
-9.89498e-07
0.00211467
-9.31026e-07
0.00211477
-8.22179e-07
0.00211486
-7.94824e-07
0.00211496
-6.8795e-07
0.00211503
-6.42041e-07
0.00211509
-4.51514e-07
0.00211514
-3.85774e-07
0.00211521
-3.8355e-07
0.00211527
-4.28156e-07
0.0021153
-2.47256e-07
-2.60324e-07
0.00229611
0.000131034
0.00230104
0.00014853
0.00230146
0.000128644
0.00229971
0.000119228
0.00229675
0.000108872
0.00229308
9.91285e-05
0.00228907
9.17265e-05
0.00228495
8.59584e-05
0.00228083
8.12282e-05
0.00227677
7.73283e-05
0.00227282
7.40615e-05
0.00226899
7.12847e-05
0.00226528
6.88632e-05
0.00226169
6.67525e-05
0.00225821
6.48526e-05
0.00225483
6.3179e-05
0.00225153
6.16277e-05
0.00224832
6.02681e-05
0.00224518
5.89924e-05
0.00224211
5.78659e-05
0.00223907
5.6756e-05
0.00223608
5.58277e-05
0.00223312
5.49496e-05
0.00223019
5.42047e-05
0.00222726
5.34454e-05
0.00222434
5.27839e-05
0.0022214
5.2257e-05
0.00221846
5.17e-05
0.0022155
5.14345e-05
0.00221254
5.08091e-05
0.00220968
5.04159e-05
0.00220642
4.69676e-05
0.00220433
4.26131e-05
0.00220296
1.33929e-05
0.0021965
-4.75721e-05
0.00218572
-9.09873e-05
0.00217685
-0.000100755
0.00217136
-9.05718e-05
0.00216853
-7.3742e-05
0.00216723
-5.69795e-05
0.00216664
-4.36435e-05
0.00216642
-3.20199e-05
0.00216628
-2.31081e-05
0.0021661
-1.57677e-05
0.00216582
-1.04726e-05
0.00216548
-6.41923e-06
0.00216507
-3.6136e-06
0.00216463
-1.40642e-06
0.00216418
2.08735e-08
0.00216374
1.06615e-06
0.00216329
1.64569e-06
0.00216284
2.17823e-06
0.00216238
2.66818e-06
0.00216192
3.28529e-06
0.00216143
3.95004e-06
0.00216093
4.73816e-06
0.00216043
5.31111e-06
0.00215997
5.64375e-06
0.00215957
5.73797e-06
0.00215922
5.26359e-06
0.0021589
4.49872e-06
0.00215863
3.589e-06
0.00215841
2.67843e-06
0.00215824
1.94371e-06
0.00215809
1.52995e-06
0.00215796
1.31831e-06
0.00215784
1.22428e-06
0.00215771
1.30807e-06
0.00215762
1.41527e-06
0.00215758
1.48758e-06
0.00215751
1.2253e-06
0.0021574
6.09252e-07
0.00215731
-7.06426e-08
0.0021573
-6.30347e-07
0.00215735
-8.68044e-07
0.00215744
-9.6571e-07
0.00215756
-1.08939e-06
0.00215769
-1.2569e-06
0.00215785
-1.2384e-06
0.00215801
-1.218e-06
0.00215818
-1.24716e-06
0.00215834
-1.49702e-06
0.00215847
-1.6927e-06
0.0021586
-1.88472e-06
0.00215873
-1.7796e-06
0.00215885
-1.66642e-06
0.00215898
-1.4433e-06
0.00215911
-1.29567e-06
0.00215926
-1.131e-06
0.00215938
-1.05893e-06
0.00215949
-9.25818e-07
0.00215958
-8.91552e-07
0.00215967
-7.70192e-07
0.00215974
-6.97277e-07
0.00215979
-5.28546e-07
0.00215984
-4.63586e-07
0.00215992
-4.30502e-07
0.00215997
-4.65811e-07
0.00216
-3.02759e-07
-3.08945e-07
0.0023332
0.00012174
0.00233861
0.000143123
0.00234005
0.000127203
0.00233951
0.00011977
0.00233775
0.000110635
0.0023352
0.000101683
0.00233218
9.47412e-05
0.00232893
8.92138e-05
0.00232556
8.45949e-05
0.00232217
8.07265e-05
0.00231879
7.74401e-05
0.00231546
7.46142e-05
0.00231219
7.21272e-05
0.002309
6.99439e-05
0.00230589
6.79692e-05
0.00230284
6.62225e-05
0.00229987
6.46029e-05
0.00229696
6.31788e-05
0.0022941
6.18462e-05
0.0022913
6.06684e-05
0.00228854
5.95169e-05
0.00228583
5.85499e-05
0.00228314
5.76462e-05
0.00228047
5.6878e-05
0.00227782
5.61075e-05
0.00227518
5.54362e-05
0.00227253
5.49204e-05
0.00226988
5.43682e-05
0.00226722
5.41117e-05
0.00226455
5.34715e-05
0.00226197
5.30483e-05
0.00225905
4.98098e-05
0.00225727
4.43722e-05
0.00225496
1.55736e-05
0.00224681
-3.94664e-05
0.00223502
-7.91703e-05
0.00222534
-9.10575e-05
0.00221907
-8.43277e-05
0.0022155
-7.01858e-05
0.00221355
-5.50292e-05
0.00221243
-4.25365e-05
0.00221178
-3.13599e-05
0.0022113
-2.26345e-05
0.00221088
-1.53437e-05
0.00221044
-1.00307e-05
0.00220997
-5.95001e-06
0.00220947
-3.10854e-06
0.00220897
-9.03566e-07
0.00220847
5.12838e-07
0.002208
1.54447e-06
0.00220752
2.11844e-06
0.00220705
2.65085e-06
0.00220658
3.13614e-06
0.00220611
3.75654e-06
0.00220563
4.43908e-06
0.00220514
5.22811e-06
0.00220467
5.78501e-06
0.00220423
6.08086e-06
0.00220386
6.11966e-06
0.00220352
5.60316e-06
0.00220322
4.79655e-06
0.00220296
3.84725e-06
0.00220274
2.89965e-06
0.00220257
2.11482e-06
0.00220243
1.66985e-06
0.0022023
1.44175e-06
0.00220219
1.33983e-06
0.00220207
1.42431e-06
0.00220199
1.4949e-06
0.00220196
1.526e-06
0.00220189
1.29371e-06
0.00220178
7.1914e-07
0.00220169
2.16112e-08
0.00220168
-6.13379e-07
0.00220173
-9.19569e-07
0.00220182
-1.06117e-06
0.00220195
-1.21074e-06
0.00220208
-1.39229e-06
0.00220223
-1.38717e-06
0.0022024
-1.38117e-06
0.00220257
-1.41838e-06
0.00220272
-1.64847e-06
0.00220285
-1.8219e-06
0.00220297
-2.00335e-06
0.00220309
-1.89471e-06
0.0022032
-1.78573e-06
0.00220333
-1.57329e-06
0.00220347
-1.4323e-06
0.00220361
-1.27033e-06
0.00220373
-1.18205e-06
0.00220383
-1.02912e-06
0.00220392
-9.84905e-07
0.002204
-8.48472e-07
0.00220407
-7.57293e-07
0.00220412
-5.8981e-07
0.00220417
-5.22496e-07
0.00220424
-4.86118e-07
0.0022043
-5.12574e-07
0.00220433
-3.4558e-07
-3.33353e-07
0.0023708
0.000112934
0.00237642
0.000137509
0.00237855
0.000125068
0.00237892
0.00011941
0.00237811
0.000111443
0.00237649
0.000103303
0.00237435
9.68838e-05
0.00237189
9.16767e-05
0.00236923
8.72525e-05
0.00236646
8.34937e-05
0.00236364
8.02588e-05
0.00236081
7.74449e-05
0.002358
7.4946e-05
0.00235521
7.27338e-05
0.00235246
7.07222e-05
0.00234975
6.89322e-05
0.00234708
6.72699e-05
0.00234446
6.58007e-05
0.00234188
6.44272e-05
0.00233934
6.32098e-05
0.00233683
6.20275e-05
0.00233436
6.10276e-05
0.00233191
6.01014e-05
0.00232948
5.93107e-05
0.00232706
5.85304e-05
0.00232465
5.78486e-05
0.00232223
5.73427e-05
0.00231982
5.67943e-05
0.0023174
5.65474e-05
0.00231497
5.59083e-05
0.0023126
5.54787e-05
0.00230996
5.24634e-05
0.00230834
4.60473e-05
0.00230517
1.87806e-05
0.00229571
-3.00001e-05
0.00228324
-6.66861e-05
0.00227299
-8.08055e-05
0.00226611
-7.74657e-05
0.00226193
-6.60163e-05
0.00225944
-5.25416e-05
0.00225787
-4.09753e-05
0.00225685
-3.03377e-05
0.00225609
-2.18755e-05
0.00225547
-1.47196e-05
0.00225487
-9.4423e-06
0.0022543
-5.3747e-06
0.00225372
-2.53013e-06
0.00225316
-3.50801e-07
0.00225264
1.03737e-06
0.00225214
2.04654e-06
0.00225164
2.61474e-06
0.00225115
3.13738e-06
0.00225068
3.60827e-06
0.0022502
4.23005e-06
0.00224972
4.92066e-06
0.00224925
5.69925e-06
0.0022488
6.23625e-06
0.00224839
6.49474e-06
0.00224803
6.47967e-06
0.00224771
5.92597e-06
0.00224743
5.08031e-06
0.00224718
4.09395e-06
0.00224696
3.1189e-06
0.00224678
2.28756e-06
0.00224665
1.80633e-06
0.00224653
1.55823e-06
0.00224642
1.44664e-06
0.00224632
1.52681e-06
0.00224626
1.56169e-06
0.00224622
1.5651e-06
0.00224615
1.36459e-06
0.00224604
8.25967e-07
0.00224595
1.10969e-07
0.00224594
-5.94786e-07
0.00224599
-9.73115e-07
0.00224609
-1.16189e-06
0.00224621
-1.33371e-06
0.00224635
-1.52609e-06
0.0022465
-1.53391e-06
0.00224666
-1.54551e-06
0.00224683
-1.58609e-06
0.00224698
-1.79473e-06
0.00224711
-1.94731e-06
0.00224722
-2.11456e-06
0.00224733
-2.00338e-06
0.00224744
-1.89963e-06
0.00224757
-1.69825e-06
0.0022477
-1.56571e-06
0.00224784
-1.4046e-06
0.00224795
-1.29796e-06
0.00224805
-1.12825e-06
0.00224814
-1.07257e-06
0.00224821
-9.19093e-07
0.00224828
-8.11938e-07
0.00224833
-6.63999e-07
0.00224838
-5.96579e-07
0.00224845
-5.30696e-07
0.0022485
-5.49779e-07
0.00224854
-3.99139e-07
-3.76538e-07
0.00240899
0.000104658
0.00241463
0.000131862
0.00241722
0.000122482
0.00241824
0.000118391
0.00241817
0.000111511
0.00241732
0.00010416
0.00241592
9.82822e-05
0.00241416
9.34388e-05
0.00241215
8.92628e-05
0.00240997
8.56702e-05
0.00240769
8.25411e-05
0.00240535
7.97901e-05
0.00240297
7.7324e-05
0.00240058
7.51234e-05
0.00239819
7.31093e-05
0.00239582
7.13064e-05
0.00239346
6.96267e-05
0.00239113
6.81349e-05
0.00238882
6.67392e-05
0.00238653
6.54981e-05
0.00238426
6.42974e-05
0.00238202
6.32761e-05
0.00237979
6.23375e-05
0.00237758
6.15324e-05
0.00237537
6.07473e-05
0.00237317
6.00615e-05
0.00237096
5.95657e-05
0.00236874
5.90216e-05
0.00236653
5.87806e-05
0.00236431
5.81345e-05
0.0023621
5.772e-05
0.00235969
5.48236e-05
0.00235814
4.75848e-05
0.00235421
2.26218e-05
0.00234379
-1.96115e-05
0.00233084
-5.37177e-05
0.00232016
-7.01199e-05
0.00231279
-7.01145e-05
0.0023081
-6.13434e-05
0.00230516
-4.95966e-05
0.0023032
-3.9029e-05
0.00230186
-2.89946e-05
0.00230085
-2.08654e-05
0.00230005
-1.39086e-05
0.00229932
-8.7201e-06
0.00229865
-4.70247e-06
0.00229801
-1.88716e-06
0.00229741
2.47154e-07
0.00229686
1.59296e-06
0.00229633
2.56907e-06
0.00229582
3.12989e-06
0.00229532
3.63572e-06
0.00229484
4.08604e-06
0.00229437
4.70585e-06
0.0022939
5.39599e-06
0.00229344
6.15586e-06
0.00229301
6.67001e-06
0.00229262
6.89109e-06
0.00229227
6.82425e-06
0.00229197
6.23492e-06
0.0022917
5.3528e-06
0.00229146
4.33192e-06
0.00229124
3.33665e-06
0.00229107
2.46103e-06
0.00229093
1.93885e-06
0.00229082
1.66956e-06
0.00229072
1.5459e-06
0.00229063
1.61519e-06
0.00229058
1.61761e-06
0.00229054
1.60692e-06
0.00229047
1.43852e-06
0.00229036
9.30232e-07
0.00229028
1.98992e-07
0.00229026
-5.73585e-07
0.00229031
-1.02643e-06
0.00229041
-1.26462e-06
0.00229054
-1.45613e-06
0.00229067
-1.65744e-06
0.00229082
-1.68349e-06
0.00229099
-1.71233e-06
0.00229115
-1.75149e-06
0.0022913
-1.93747e-06
0.00229142
-2.07129e-06
0.00229153
-2.22234e-06
0.00229164
-2.11047e-06
0.00229175
-2.01213e-06
0.00229187
-1.82056e-06
0.002292
-1.69701e-06
0.00229213
-1.53494e-06
0.00229224
-1.40801e-06
0.00229233
-1.22546e-06
0.00229242
-1.15761e-06
0.00229248
-9.87867e-07
0.00229255
-8.72235e-07
0.00229261
-7.2276e-07
0.00229266
-6.52303e-07
0.00229272
-5.85304e-07
0.00229277
-5.96282e-07
0.00229281
-4.38925e-07
-3.96465e-07
0.00244779
9.69213e-05
0.00245337
0.00012629
0.00245623
0.000119617
0.00245772
0.000116905
0.00245821
0.000111018
0.00245796
0.00010441
0.00245718
9.90623e-05
0.00245603
9.45968e-05
0.00245459
9.06979e-05
0.00245296
8.73073e-05
0.00245118
8.43233e-05
0.00244929
8.16738e-05
0.00244734
7.92781e-05
0.00244534
7.71228e-05
0.00244331
7.51379e-05
0.00244127
7.33493e-05
0.00243922
7.16771e-05
0.00243718
7.01832e-05
0.00243513
6.87838e-05
0.0024331
6.75343e-05
0.00243107
6.63296e-05
0.00242905
6.52974e-05
0.00242704
6.43544e-05
0.00242503
6.35413e-05
0.00242302
6.2758e-05
0.00242102
6.20727e-05
0.00241899
6.15913e-05
0.00241697
6.10562e-05
0.00241493
6.08274e-05
0.00241289
6.01932e-05
0.00241083
5.98155e-05
0.00240862
5.70571e-05
0.00240707
4.91883e-05
0.00240254
2.71962e-05
0.00239142
-8.48098e-06
0.00237814
-4.04317e-05
0.00236713
-5.91118e-05
0.00235935
-6.23402e-05
0.00235422
-5.62241e-05
0.00235087
-4.62505e-05
0.00234858
-3.67396e-05
0.00234696
-2.73779e-05
0.00234573
-1.96392e-05
0.00234477
-1.29406e-05
0.00234393
-7.8829e-06
0.00234317
-3.95203e-06
0.00234248
-1.19408e-06
0.00234184
8.80245e-07
0.00234126
2.17414e-06
0.00234072
3.10897e-06
0.00234019
3.65592e-06
0.00233969
4.13972e-06
0.00233921
4.566e-06
0.00233874
5.17894e-06
0.00233827
5.86087e-06
0.00233783
6.59421e-06
0.00233742
7.08275e-06
0.00233704
7.26789e-06
0.00233672
7.15199e-06
0.00233642
6.53053e-06
0.00233616
5.61467e-06
0.00233593
4.56315e-06