/*--------------------------------*- C++ -*----------------------------------*\
| =========                 |                                                 |
| \\      /  F ield         | OpenFOAM: The Open Source CFD Toolbox           |
|  \\    /   O peration     | Version:  3.0.0                                 |
|   \\  /    A nd           | Web:      www.OpenFOAM.org                      |
|    \\/     M anipulation  |                                                 |
\*---------------------------------------------------------------------------*/
FoamFile
{
    version     2.0;
    format      ascii;
    class       volVectorField;
    location    "100";
    object      U;
}
// * * * * * * * * * * * * * * * * * * * * * * * * * * * * * * * * * * * * * //

dimensions      [0 1 -1 0 0 0 0];

internalField   nonuniform List<vector> 
10000
(
(0.945473 -0.0620014 0)
(0.901299 -0.0254991 0)
(0.875735 -0.00573618 0)
(0.857598 -0.000443606 0)
(0.84335 0.000348936 0)
(0.830832 0.000311626 0)
(0.81922 0.000268393 0)
(0.808233 0.000281223 0)
(0.797737 0.00030826 0)
(0.787679 0.000328718 0)
(0.778055 0.000338578 0)
(0.768869 0.000339401 0)
(0.760116 0.000333434 0)
(0.751796 0.000322888 0)
(0.743909 0.000309286 0)
(0.736445 0.000294224 0)
(0.729388 0.000278322 0)
(0.722719 0.000262736 0)
(0.716418 0.000247354 0)
(0.710465 0.000232946 0)
(0.704839 0.000218914 0)
(0.69951 0.000206352 0)
(0.694459 0.000194599 0)
(0.689671 0.000185375 0)
(0.685122 0.000176124 0)
(0.680775 0.000167434 0)
(0.676645 0.000160155 0)
(0.6727 0.000156172 0)
(0.668913 0.000154552 0)
(0.665235 0.000149887 0)
(0.661742 0.000154982 0)
(0.658524 0.000134119 0)
(0.656341 0.000110603 0)
(0.654516 4.61234e-06 0)
(0.651289 -0.000553071 0)
(0.667561 -0.000971313 0)
(0.696717 -0.00100537 0)
(0.723603 -0.000921851 0)
(0.743287 -0.00078095 0)
(0.75675 -0.000624874 0)
(0.765698 -0.000485721 0)
(0.771821 -0.000362181 0)
(0.776019 -0.000268655 0)
(0.778965 -0.000195766 0)
(0.781052 -0.000143979 0)
(0.78247 -0.000104003 0)
(0.783471 -7.58551e-05 0)
(0.784084 -5.65148e-05 0)
(0.784526 -4.23047e-05 0)
(0.784811 -2.8775e-05 0)
(0.784997 -1.84017e-05 0)
(0.785113 -1.07435e-05 0)
(0.785129 -6.33201e-06 0)
(0.785123 -3.33315e-06 0)
(0.784918 -8.30257e-07 0)
(0.784677 8.91705e-06 0)
(0.784426 1.75677e-05 0)
(0.784015 2.36372e-05 0)
(0.783482 2.80081e-05 0)
(0.782896 2.50357e-05 0)
(0.782382 1.61548e-05 0)
(0.781971 8.40599e-06 0)
(0.781779 4.89477e-06 0)
(0.781546 2.10529e-06 0)
(0.781392 2.19922e-06 0)
(0.781343 4.44097e-06 0)
(0.781255 6.00644e-06 0)
(0.781261 5.14003e-06 0)
(0.781197 1.02185e-05 0)
(0.780916 1.41482e-05 0)
(0.780708 4.65693e-06 0)
(0.780639 -7.40888e-06 0)
(0.780916 -9.56293e-06 0)
(0.781218 -4.32597e-06 0)
(0.781376 -2.06901e-06 0)
(0.781445 -2.25553e-06 0)
(0.781563 -2.18706e-06 0)
(0.781642 -3.1747e-06 0)
(0.781737 -2.7059e-06 0)
(0.781768 -1.21412e-06 0)
(0.781806 -9.21683e-07 0)
(0.78183 -2.93925e-06 0)
(0.782059 -4.79666e-06 0)
(0.782252 -5.59832e-06 0)
(0.78243 -6.16501e-06 0)
(0.782552 -7.9777e-06 0)
(0.782654 -5.75578e-06 0)
(0.782769 -2.34029e-06 0)
(0.782777 -1.72363e-06 0)
(0.782818 -2.27837e-06 0)
(0.782842 -2.01756e-06 0)
(0.782896 -2.26492e-06 0)
(0.782882 -2.04994e-06 0)
(0.782974 -2.57935e-07 0)
(0.782983 4.91437e-07 0)
(0.782876 -1.13139e-06 0)
(0.782889 -1.8799e-06 0)
(0.78297 -4.35055e-06 0)
(0.782904 -3.30418e-07 0)
(0.78282 7.95125e-07 0)
(0.993362 0.0135316 0)
(0.977094 0.00921703 0)
(0.958096 0.00368175 0)
(0.943623 0.00182199 0)
(0.932989 0.00134705 0)
(0.924129 0.00118521 0)
(0.91628 0.00110508 0)
(0.90911 0.00104811 0)
(0.902344 0.000997164 0)
(0.895818 0.000951408 0)
(0.88945 0.000910108 0)
(0.883188 0.000871633 0)
(0.877013 0.00083454 0)
(0.87092 0.000798641 0)
(0.864904 0.00076333 0)
(0.858971 0.00072927 0)
(0.853131 0.000695636 0)
(0.847396 0.00066379 0)
(0.841777 0.000632657 0)
(0.836285 0.000603302 0)
(0.830925 0.000574111 0)
(0.825704 0.000548105 0)
(0.820624 0.000522638 0)
(0.8157 0.000500009 0)
(0.810918 0.000476987 0)
(0.806275 0.000457591 0)
(0.801771 0.000436718 0)
(0.797422 0.000420046 0)
(0.7932 0.000405192 0)
(0.789081 0.00039147 0)
(0.785099 0.000389292 0)
(0.781053 0.000316853 0)
(0.778087 0.000257195 0)
(0.77421 0.000290122 0)
(0.772064 -0.000523232 0)
(0.788585 -0.0021046 0)
(0.809474 -0.00274544 0)
(0.826147 -0.00232285 0)
(0.838103 -0.00165947 0)
(0.846623 -0.00112135 0)
(0.852684 -0.000763985 0)
(0.857013 -0.000514774 0)
(0.86009 -0.000360132 0)
(0.862283 -0.000251408 0)
(0.863827 -0.000177583 0)
(0.864885 -0.000121442 0)
(0.865615 -8.25823e-05 0)
(0.866091 -5.34832e-05 0)
(0.866398 -3.55054e-05 0)
(0.866565 -2.00908e-05 0)
(0.866621 -1.32738e-05 0)
(0.866614 -6.28089e-06 0)
(0.866604 -4.84982e-07 0)
(0.866534 1.19006e-05 0)
(0.86638 2.13215e-05 0)
(0.866188 2.66168e-05 0)
(0.86594 3.49314e-05 0)
(0.865592 4.64367e-05 0)
(0.865195 5.66419e-05 0)
(0.864762 5.57561e-05 0)
(0.864376 4.67602e-05 0)
(0.864048 3.3833e-05 0)
(0.863819 2.52105e-05 0)
(0.863648 1.86841e-05 0)
(0.863521 1.11761e-05 0)
(0.863436 8.24953e-06 0)
(0.863348 4.89568e-06 0)
(0.863291 5.42134e-06 0)
(0.863275 1.31354e-05 0)
(0.863087 2.30227e-05 0)
(0.862964 1.73117e-05 0)
(0.862878 -3.50889e-06 0)
(0.862925 -1.98496e-05 0)
(0.863023 -2.12891e-05 0)
(0.863089 -1.39109e-05 0)
(0.86316 -8.68231e-06 0)
(0.863231 -8.26306e-06 0)
(0.863295 -9.90743e-06 0)
(0.863375 -6.59239e-06 0)
(0.863426 -4.3055e-06 0)
(0.863489 -3.0791e-06 0)
(0.863543 -9.65389e-06 0)
(0.863657 -1.74679e-05 0)
(0.86381 -1.93544e-05 0)
(0.86395 -1.52864e-05 0)
(0.864069 -1.33534e-05 0)
(0.864163 -1.21681e-05 0)
(0.864277 -8.84359e-06 0)
(0.864313 -3.42283e-06 0)
(0.864382 -2.54208e-06 0)
(0.864397 -4.12106e-06 0)
(0.864478 -4.66497e-06 0)
(0.864494 -3.2604e-06 0)
(0.864556 -4.65967e-06 0)
(0.864581 -6.68413e-07 0)
(0.864552 1.39918e-06 0)
(0.864592 5.54613e-08 0)
(0.864651 -2.38722e-06 0)
(0.864648 2.09073e-06 0)
(0.864623 -3.92539e-07 0)
(0.998648 0.00953214 0)
(0.993045 0.00609216 0)
(0.981645 0.00309557 0)
(0.971148 0.00225901 0)
(0.96286 0.00189324 0)
(0.955871 0.00164429 0)
(0.949764 0.00149541 0)
(0.944322 0.00140239 0)
(0.939326 0.00133391 0)
(0.93462 0.00127998 0)
(0.93011 0.00123484 0)
(0.925728 0.00119481 0)
(0.921428 0.00115708 0)
(0.917178 0.001121 0)
(0.912957 0.00108519 0)
(0.908754 0.0010507 0)
(0.904561 0.00101585 0)
(0.900376 0.000982754 0)
(0.896197 0.000949394 0)
(0.892029 0.000917608 0)
(0.887873 0.000884633 0)
(0.883736 0.000855088 0)
(0.879623 0.00082518 0)
(0.875545 0.000798302 0)
(0.871506 0.000769856 0)
(0.867502 0.000744672 0)
(0.863545 0.000718781 0)
(0.859646 0.000695469 0)
(0.855796 0.00067678 0)
(0.851989 0.000652731 0)
(0.848235 0.000652612 0)
(0.844615 0.000539201 0)
(0.841671 0.000470225 0)
(0.837556 0.00034943 0)
(0.837674 -0.00115387 0)
(0.850174 -0.00313375 0)
(0.861845 -0.00356349 0)
(0.870781 -0.00290434 0)
(0.877594 -0.00209171 0)
(0.882827 -0.00145001 0)
(0.886841 -0.00101871 0)
(0.889854 -0.000702524 0)
(0.89204 -0.000498116 0)
(0.893588 -0.000349316 0)
(0.894673 -0.000246847 0)
(0.895404 -0.000168119 0)
(0.895893 -0.000114889 0)
(0.896209 -7.34099e-05 0)
(0.896365 -4.65016e-05 0)
(0.896435 -2.43884e-05 0)
(0.896409 -1.33642e-05 0)
(0.896342 -3.22298e-06 0)
(0.89627 5.06824e-06 0)
(0.896142 1.9715e-05 0)
(0.89598 3.15141e-05 0)
(0.895771 4.31593e-05 0)
(0.895502 5.60487e-05 0)
(0.895174 6.96934e-05 0)
(0.894836 8.16249e-05 0)
(0.894503 7.83261e-05 0)
(0.894212 6.52607e-05 0)
(0.893953 4.78792e-05 0)
(0.893761 3.49662e-05 0)
(0.893637 2.5928e-05 0)
(0.893527 1.75975e-05 0)
(0.893434 1.34535e-05 0)
(0.893365 9.88366e-06 0)
(0.893283 1.03684e-05 0)
(0.893243 1.93999e-05 0)
(0.89311 3.09123e-05 0)
(0.893047 2.19927e-05 0)
(0.892978 -3.05934e-06 0)
(0.892952 -2.08759e-05 0)
(0.892973 -2.25832e-05 0)
(0.893007 -1.58957e-05 0)
(0.893068 -1.1827e-05 0)
(0.893124 -1.17213e-05 0)
(0.893178 -1.35331e-05 0)
(0.89324 -1.0388e-05 0)
(0.89331 -8.4073e-06 0)
(0.893381 -7.04683e-06 0)
(0.893448 -1.50134e-05 0)
(0.893532 -2.36088e-05 0)
(0.893645 -2.68475e-05 0)
(0.893765 -2.29402e-05 0)
(0.893878 -2.1188e-05 0)
(0.893965 -1.7798e-05 0)
(0.894058 -1.28107e-05 0)
(0.894113 -6.81361e-06 0)
(0.89418 -6.6428e-06 0)
(0.894221 -7.82015e-06 0)
(0.894286 -7.87323e-06 0)
(0.894314 -5.95222e-06 0)
(0.894366 -7.51544e-06 0)
(0.894405 -2.49516e-06 0)
(0.894404 -3.56204e-07 0)
(0.894454 -1.86518e-06 0)
(0.894495 -5.08543e-06 0)
(0.894501 1.01991e-06 0)
(0.894515 -1.14703e-06 0)
(1.00062 0.00627977 0)
(1.00001 0.00496384 0)
(0.993124 0.0033605 0)
(0.985502 0.00277562 0)
(0.978968 0.00235591 0)
(0.973207 0.00203812 0)
(0.968092 0.00184189 0)
(0.963544 0.00171644 0)
(0.959418 0.00162532 0)
(0.955598 0.00155573 0)
(0.952003 0.00149983 0)
(0.948573 0.00145256 0)
(0.945261 0.00140996 0)
(0.94203 0.0013711 0)
(0.938854 0.00133382 0)
(0.935714 0.00129896 0)
(0.932593 0.00126411 0)
(0.929481 0.00123167 0)
(0.926368 0.00119896 0)
(0.92325 0.00116811 0)
(0.920121 0.00113559 0)
(0.916979 0.00110683 0)
(0.913824 0.00107739 0)
(0.910657 0.00105079 0)
(0.90748 0.00102204 0)
(0.904287 0.00099632 0)
(0.901089 0.000970181 0)
(0.897885 0.000945091 0)
(0.894678 0.000926067 0)
(0.891457 0.00089919 0)
(0.88825 0.00089627 0)
(0.885201 0.00075497 0)
(0.882447 0.00069178 0)
(0.878713 0.000407833 0)
(0.880966 -0.00158568 0)
(0.88817 -0.0037623 0)
(0.892892 -0.00405553 0)
(0.896808 -0.0032795 0)
(0.900367 -0.00238892 0)
(0.903475 -0.00168503 0)
(0.906073 -0.00120471 0)
(0.908137 -0.000841599 0)
(0.90968 -0.000599878 0)
(0.910752 -0.000419902 0)
(0.911495 -0.000294988 0)
(0.911973 -0.000199154 0)
(0.912272 -0.000134732 0)
(0.912453 -8.32045e-05 0)
(0.912493 -4.97134e-05 0)
(0.912489 -2.29453e-05 0)
(0.912408 -8.55826e-06 0)
(0.912305 3.60673e-06 0)
(0.912185 1.38226e-05 0)
(0.912024 3.09269e-05 0)
(0.911851 4.52819e-05 0)
(0.911628 6.0895e-05 0)
(0.911352 7.65572e-05 0)
(0.911048 9.12487e-05 0)
(0.910749 0.000103061 0)
(0.910473 9.74735e-05 0)
(0.91023 8.17789e-05 0)
(0.910011 6.1355e-05 0)
(0.909845 4.47547e-05 0)
(0.909744 3.29351e-05 0)
(0.909648 2.34125e-05 0)
(0.909562 1.8452e-05 0)
(0.909502 1.49581e-05 0)
(0.909414 1.53802e-05 0)
(0.909353 2.48489e-05 0)
(0.909262 3.66601e-05 0)
(0.909223 2.60741e-05 0)
(0.909162 -1.55359e-07 0)
(0.909116 -1.9483e-05 0)
(0.909103 -2.33262e-05 0)
(0.909127 -1.85271e-05 0)
(0.909176 -1.53396e-05 0)
(0.909228 -1.52313e-05 0)
(0.909281 -1.76264e-05 0)
(0.90934 -1.47314e-05 0)
(0.909415 -1.29509e-05 0)
(0.909483 -1.15923e-05 0)
(0.909559 -2.0258e-05 0)
(0.909636 -2.97044e-05 0)
(0.909727 -3.41165e-05 0)
(0.90983 -3.00969e-05 0)
(0.909936 -2.78723e-05 0)
(0.910016 -2.31329e-05 0)
(0.910086 -1.76084e-05 0)
(0.910153 -1.11598e-05 0)
(0.910217 -1.0699e-05 0)
(0.910275 -1.15197e-05 0)
(0.910323 -1.13608e-05 0)
(0.910364 -8.80221e-06 0)
(0.910412 -1.05176e-05 0)
(0.910451 -4.59051e-06 0)
(0.910463 -2.32438e-06 0)
(0.910511 -3.68563e-06 0)
(0.910547 -7.06278e-06 0)
(0.910555 -5.94786e-07 0)
(0.91058 -2.4879e-06 0)
(1.0015 0.00551718 0)
(1.00351 0.00513881 0)
(0.999537 0.00380626 0)
(0.994128 0.00320798 0)
(0.989101 0.00274568 0)
(0.984395 0.00238822 0)
(0.980071 0.00215625 0)
(0.976165 0.00200047 0)
(0.972604 0.00188517 0)
(0.969315 0.00179689 0)
(0.966243 0.0017267 0)
(0.963343 0.00166866 0)
(0.960576 0.00161805 0)
(0.95791 0.00157346 0)
(0.955321 0.001532 0)
(0.952788 0.00149439 0)
(0.950296 0.00145772 0)
(0.947829 0.00142453 0)
(0.945379 0.00139164 0)
(0.942936 0.0013613 0)
(0.940492 0.00132943 0)
(0.93804 0.00130188 0)
(0.935578 0.00127382 0)
(0.933101 0.00124885 0)
(0.930607 0.00122165 0)
(0.928088 0.00119751 0)
(0.92555 0.00117372 0)
(0.922983 0.00115004 0)
(0.920395 0.00113378 0)
(0.917774 0.00110838 0)
(0.915145 0.00110361 0)
(0.912671 0.000952659 0)
(0.910194 0.000899416 0)
(0.907246 0.000418185 0)
(0.910297 -0.00186978 0)
(0.91283 -0.004014 0)
(0.913283 -0.00422286 0)
(0.914194 -0.00344588 0)
(0.915713 -0.0025565 0)
(0.917424 -0.00183731 0)
(0.919026 -0.00133507 0)
(0.920389 -0.000943584 0)
(0.921454 -0.000674947 0)
(0.92218 -0.000471047 0)
(0.92266 -0.000328646 0)
(0.922948 -0.000219587 0)
(0.923102 -0.000146216 0)
(0.923169 -8.6724e-05 0)
(0.92313 -4.81351e-05 0)
(0.923065 -1.79417e-05 0)
(0.922947 -9.57425e-07 0)
(0.922816 1.28434e-05 0)
(0.922663 2.47957e-05 0)
(0.922481 4.35021e-05 0)
(0.922297 5.99652e-05 0)
(0.922067 7.8975e-05 0)
(0.921795 9.66562e-05 0)
(0.921515 0.000111576 0)
(0.921245 0.000122437 0)
(0.921007 0.000114635 0)
(0.920793 9.66692e-05 0)
(0.920605 7.37673e-05 0)
(0.920452 5.37454e-05 0)
(0.920363 3.92869e-05 0)
(0.920278 2.90351e-05 0)
(0.920204 2.33399e-05 0)
(0.920143 1.99989e-05 0)
(0.920061 2.08862e-05 0)
(0.919986 2.98703e-05 0)
(0.919923 4.08212e-05 0)
(0.919896 2.95636e-05 0)
(0.919841 3.3692e-06 0)
(0.919789 -1.69219e-05 0)
(0.919761 -2.33102e-05 0)
(0.919782 -2.08857e-05 0)
(0.919821 -1.86333e-05 0)
(0.919873 -1.87973e-05 0)
(0.91993 -2.17066e-05 0)
(0.919989 -1.93366e-05 0)
(0.920063 -1.78312e-05 0)
(0.920128 -1.65597e-05 0)
(0.92021 -2.56709e-05 0)
(0.920284 -3.52279e-05 0)
(0.920364 -4.06257e-05 0)
(0.920455 -3.67523e-05 0)
(0.920544 -3.39608e-05 0)
(0.920619 -2.81776e-05 0)
(0.920679 -2.24256e-05 0)
(0.920748 -1.58182e-05 0)
(0.920815 -1.51272e-05 0)
(0.920877 -1.52315e-05 0)
(0.920914 -1.47044e-05 0)
(0.920966 -1.18303e-05 0)
(0.921009 -1.33645e-05 0)
(0.921043 -6.95181e-06 0)
(0.921064 -4.70349e-06 0)
(0.921106 -5.73721e-06 0)
(0.92114 -8.78206e-06 0)
(0.921148 -2.40236e-06 0)
(0.921177 -4.03562e-06 0)
(1.00183 0.00540982 0)
(1.00525 0.00533921 0)
(1.00324 0.00409646 0)
(0.999547 0.00352064 0)
(0.995819 0.0030573 0)
(0.992077 0.0026837 0)
(0.988482 0.00242928 0)
(0.985147 0.00225094 0)
(0.982059 0.0021158 0)
(0.979182 0.00201099 0)
(0.976489 0.00192724 0)
(0.97395 0.00185826 0)
(0.971538 0.00179891 0)
(0.96923 0.00174746 0)
(0.967006 0.00170062 0)
(0.964848 0.00165897 0)
(0.962743 0.00161924 0)
(0.960676 0.001584 0)
(0.95864 0.0015497 0)
(0.956624 0.00151866 0)
(0.95462 0.00148653 0)
(0.952619 0.00145933 0)
(0.950619 0.00143205 0)
(0.948613 0.00140823 0)
(0.946598 0.00138242 0)
(0.944563 0.00135977 0)
(0.942515 0.00133841 0)
(0.940437 0.00131674 0)
(0.938338 0.0013035 0)
(0.936208 0.00128033 0)
(0.934069 0.00127387 0)
(0.932058 0.00112472 0)
(0.929869 0.00107097 0)
(0.927785 0.000404113 0)
(0.930432 -0.00199681 0)
(0.929682 -0.00400661 0)
(0.927673 -0.00418726 0)
(0.926794 -0.00347299 0)
(0.927002 -0.00262936 0)
(0.927758 -0.00192371 0)
(0.928644 -0.00141799 0)
(0.929478 -0.00101283 0)
(0.930171 -0.000726541 0)
(0.93063 -0.000505023 0)
(0.930908 -0.000349468 0)
(0.931052 -0.000230419 0)
(0.931093 -0.000150155 0)
(0.931068 -8.47646e-05 0)
(0.930975 -4.23128e-05 0)
(0.930859 -9.80203e-06 0)
(0.930715 8.77993e-06 0)
(0.930564 2.39355e-05 0)
(0.930387 3.74796e-05 0)
(0.930193 5.70956e-05 0)
(0.93 7.53003e-05 0)
(0.929767 9.71495e-05 0)
(0.929506 0.000116045 0)
(0.929248 0.000130554 0)
(0.929002 0.000140005 0)
(0.928792 0.000130131 0)
(0.928598 0.000110221 0)
(0.928434 8.52542e-05 0)
(0.928291 6.21948e-05 0)
(0.928207 4.52068e-05 0)
(0.928131 3.4255e-05 0)
(0.928065 2.80854e-05 0)
(0.928 2.50079e-05 0)
(0.927929 2.65181e-05 0)
(0.927847 3.44269e-05 0)
(0.927804 4.37853e-05 0)
(0.927783 3.25781e-05 0)
(0.927733 7.14644e-06 0)
(0.92768 -1.37571e-05 0)
(0.927644 -2.28858e-05 0)
(0.927665 -2.2949e-05 0)
(0.927698 -2.17179e-05 0)
(0.927751 -2.25242e-05 0)
(0.927808 -2.60403e-05 0)
(0.927871 -2.41009e-05 0)
(0.92794 -2.26818e-05 0)
(0.928007 -2.18307e-05 0)
(0.928093 -3.12289e-05 0)
(0.928163 -4.03929e-05 0)
(0.928235 -4.63696e-05 0)
(0.928316 -4.27974e-05 0)
(0.928391 -3.95632e-05 0)
(0.928459 -3.28018e-05 0)
(0.928517 -2.71534e-05 0)
(0.928585 -2.07073e-05 0)
(0.928652 -1.97154e-05 0)
(0.928716 -1.88083e-05 0)
(0.928745 -1.80723e-05 0)
(0.928805 -1.5094e-05 0)
(0.92884 -1.59689e-05 0)
(0.928871 -9.27894e-06 0)
(0.928897 -7.08192e-06 0)
(0.928935 -7.85998e-06 0)
(0.928967 -1.04428e-05 0)
(0.928975 -4.13138e-06 0)
(0.929004 -5.45825e-06 0)
(1.00188 0.00518667 0)
(1.006 0.00532063 0)
(1.00534 0.0042401 0)
(1.00297 0.00373558 0)
(1.00033 0.00329582 0)
(0.997453 0.00292338 0)
(0.994542 0.00265955 0)
(0.99175 0.00246785 0)
(0.989105 0.00231904 0)
(0.986603 0.00220164 0)
(0.984238 0.00210674 0)
(0.981997 0.0020282 0)
(0.979863 0.00196074 0)
(0.977823 0.00190255 0)
(0.975862 0.00185012 0)
(0.973966 0.00180396 0)
(0.972126 0.00176059 0)
(0.97033 0.00172249 0)
(0.96857 0.00168601 0)
(0.966839 0.00165345 0)
(0.965128 0.0016203 0)
(0.96343 0.00159255 0)
(0.961742 0.00156521 0)
(0.960056 0.00154173 0)
(0.95837 0.00151664 0)
(0.956673 0.00149479 0)
(0.95497 0.00147521 0)
(0.953243 0.00145506 0)
(0.951503 0.00144398 0)
(0.949738 0.00142247 0)
(0.94798 0.00141396 0)
(0.946306 0.00127279 0)
(0.944381 0.00120404 0)
(0.94303 0.00038876 0)
(0.944667 -0.00199409 0)
(0.941826 -0.0038348 0)
(0.938416 -0.0040286 0)
(0.936451 -0.00340856 0)
(0.935787 -0.00263442 0)
(0.935866 -0.00195987 0)
(0.936222 -0.00146291 0)
(0.936649 -0.00105466 0)
(0.937042 -0.000758434 0)
(0.937291 -0.000524699 0)
(0.937411 -0.000359548 0)
(0.937443 -0.000233308 0)
(0.937397 -0.000147663 0)
(0.9373 -7.81853e-05 0)
(0.937166 -3.31167e-05 0)
(0.937011 8.60852e-07 0)
(0.936848 2.02617e-05 0)
(0.93668 3.65204e-05 0)
(0.936489 5.13747e-05 0)
(0.936289 7.1502e-05 0)
(0.936089 9.11406e-05 0)
(0.935857 0.000115074 0)
(0.93561 0.000134553 0)
(0.93537 0.000148304 0)
(0.935144 0.000156078 0)
(0.934956 0.000144294 0)
(0.934778 0.000122623 0)
(0.934632 9.59159e-05 0)
(0.934498 7.02664e-05 0)
(0.934417 5.08739e-05 0)
(0.934345 3.92038e-05 0)
(0.934284 3.27769e-05 0)
(0.934219 2.9851e-05 0)
(0.934157 3.19194e-05 0)
(0.934077 3.85802e-05 0)
(0.934045 4.59514e-05 0)
(0.934029 3.5198e-05 0)
(0.933982 1.09423e-05 0)
(0.933929 -1.04408e-05 0)
(0.933894 -2.235e-05 0)
(0.933913 -2.4742e-05 0)
(0.933941 -2.46756e-05 0)
(0.933995 -2.64078e-05 0)
(0.93405 -3.04962e-05 0)
(0.934118 -2.89564e-05 0)
(0.934184 -2.76303e-05 0)
(0.934254 -2.73031e-05 0)
(0.934338 -3.67475e-05 0)
(0.934405 -4.52502e-05 0)
(0.93447 -5.1629e-05 0)
(0.934542 -4.81587e-05 0)
(0.934608 -4.45948e-05 0)
(0.93467 -3.72855e-05 0)
(0.934728 -3.17769e-05 0)
(0.934795 -2.56456e-05 0)
(0.93486 -2.43086e-05 0)
(0.934922 -2.22889e-05 0)
(0.93495 -2.14797e-05 0)
(0.935011 -1.83416e-05 0)
(0.935041 -1.82706e-05 0)
(0.935069 -1.16649e-05 0)
(0.935098 -9.51446e-06 0)
(0.935131 -9.87e-06 0)
(0.935162 -1.19866e-05 0)
(0.93517 -5.85714e-06 0)
(0.935199 -6.88874e-06 0)
(1.0018 0.00486325 0)
(1.0062 0.00519626 0)
(1.00645 0.00429937 0)
(1.00507 0.00387563 0)
(1.00332 0.00347046 0)
(1.0012 0.00311153 0)
(0.998921 0.00284894 0)
(0.996645 0.00265208 0)
(0.994428 0.00249564 0)
(0.992286 0.00236998 0)
(0.990232 0.00226698 0)
(0.988265 0.00218093 0)
(0.98638 0.00210672 0)
(0.984569 0.00204261 0)
(0.982825 0.00198506 0)
(0.981139 0.00193453 0)
(0.979504 0.00188746 0)
(0.977912 0.00184628 0)
(0.976357 0.00180729 0)
(0.974833 0.00177276 0)
(0.973333 0.00173813 0)
(0.97185 0.00170926 0)
(0.970382 0.00168134 0)
(0.968924 0.00165758 0)
(0.96747 0.00163264 0)
(0.966013 0.00161097 0)
(0.964555 0.00159251 0)
(0.963081 0.00157329 0)
(0.9616 0.00156353 0)
(0.9601 0.00154271 0)
(0.958623 0.00153202 0)
(0.957188 0.00140104 0)
(0.955497 0.00130526 0)
(0.954673 0.000389927 0)
(0.955138 -0.00188973 0)
(0.951018 -0.00356074 0)
(0.946806 -0.003795 0)
(0.944162 -0.00328355 0)
(0.942899 -0.0025908 0)
(0.942482 -0.00195788 0)
(0.942436 -0.00147781 0)
(0.942544 -0.00107388 0)
(0.942692 -0.00077374 0)
(0.94277 -0.000532528 0)
(0.942767 -0.000360859 0)
(0.942708 -0.000229654 0)
(0.942594 -0.000139932 0)
(0.942444 -6.78798e-05 0)
(0.942277 -2.11671e-05 0)
(0.942094 1.35753e-05 0)
(0.941916 3.32064e-05 0)
(0.941733 5.03002e-05 0)
(0.941534 6.60524e-05 0)
(0.941333 8.6461e-05 0)
(0.941129 0.000107305 0)
(0.940902 0.000132644 0)
(0.940668 0.00015221 0)
(0.940444 0.000164989 0)
(0.940237 0.000170944 0)
(0.940065 0.000157412 0)
(0.9399 0.000134116 0)
(0.939768 0.000105866 0)
(0.939642 7.8052e-05 0)
(0.939563 5.64512e-05 0)
(0.939493 4.39913e-05 0)
(0.939434 3.73654e-05 0)
(0.939371 3.44584e-05 0)
(0.939317 3.69532e-05 0)
(0.939244 4.23453e-05 0)
(0.939219 4.76193e-05 0)
(0.939206 3.75527e-05 0)
(0.939161 1.47126e-05 0)
(0.939108 -7.12334e-06 0)
(0.939078 -2.17845e-05 0)
(0.939094 -2.64374e-05 0)
(0.939121 -2.76227e-05 0)
(0.939174 -3.0332e-05 0)
(0.939228 -3.50607e-05 0)
(0.939296 -3.38901e-05 0)
(0.939361 -3.26906e-05 0)
(0.939435 -3.29675e-05 0)
(0.939515 -4.21798e-05 0)
(0.939579 -4.98824e-05 0)
(0.939638 -5.64048e-05 0)
(0.939704 -5.29702e-05 0)
(0.939761 -4.92032e-05 0)
(0.939821 -4.16601e-05 0)
(0.939877 -3.63915e-05 0)
(0.939942 -3.05502e-05 0)
(0.940005 -2.88348e-05 0)
(0.940063 -2.57495e-05 0)
(0.940095 -2.48549e-05 0)
(0.940151 -2.14457e-05 0)
(0.940178 -2.03829e-05 0)
(0.940203 -1.40094e-05 0)
(0.940234 -1.18612e-05 0)
(0.940264 -1.17753e-05 0)
(0.940292 -1.34816e-05 0)
(0.940301 -7.53388e-06 0)
(0.940329 -8.21298e-06 0)
(1.00168 0.00452796 0)
(1.0061 0.00503704 0)
(1.00695 0.00430466 0)
(1.0063 0.0039568 0)
(1.00525 0.00359123 0)
(1.00378 0.00325368 0)
(1.00205 0.00300001 0)
(1.00025 0.00280458 0)
(0.998444 0.00264587 0)
(0.996651 0.0025161 0)
(0.994898 0.00240817 0)
(0.993196 0.00231697 0)
(0.991547 0.00223778 0)
(0.989951 0.00216902 0)
(0.988404 0.00210721 0)
(0.986904 0.00205289 0)
(0.985446 0.0020025 0)
(0.984025 0.00195841 0)
(0.982638 0.00191696 0)
(0.981279 0.00188036 0)
(0.979944 0.00184411 0)
(0.978627 0.00181386 0)
(0.977327 0.00178506 0)
(0.976038 0.00176065 0)
(0.974758 0.0017355 0)
(0.973479 0.00171364 0)
(0.972202 0.00169587 0)
(0.970915 0.00167714 0)
(0.969626 0.0016681 0)
(0.968322 0.00164731 0)
(0.967049 0.00163469 0)
(0.965786 0.001514 0)
(0.964299 0.00138425 0)
(0.963798 0.000418462 0)
(0.963164 -0.00170548 0)
(0.958273 -0.00322242 0)
(0.953598 -0.00351411 0)
(0.950518 -0.00311679 0)
(0.94883 -0.00251108 0)
(0.948039 -0.00192628 0)
(0.947681 -0.00146867 0)
(0.947535 -0.00107438 0)
(0.947481 -0.000775096 0)
(0.947419 -0.000530491 0)
(0.947316 -0.000354917 0)
(0.947184 -0.000220588 0)
(0.947016 -0.000127952 0)
(0.946825 -5.45647e-05 0)
(0.946632 -7.09543e-06 0)
(0.946432 2.78665e-05 0)
(0.946241 4.73835e-05 0)
(0.946045 6.49786e-05 0)
(0.945843 8.12491e-05 0)
(0.945643 0.000101831 0)
(0.945437 0.00012363 0)
(0.945217 0.000149736 0)
(0.944996 0.000169057 0)
(0.944787 0.000180733 0)
(0.944595 0.000184811 0)
(0.944437 0.000169694 0)
(0.944284 0.000144883 0)
(0.944162 0.0001152 0)
(0.944045 8.56266e-05 0)
(0.943965 6.20518e-05 0)
(0.943897 4.87218e-05 0)
(0.943839 4.17984e-05 0)
(0.943782 3.87763e-05 0)
(0.943732 4.15375e-05 0)
(0.943668 4.56785e-05 0)
(0.943649 4.90086e-05 0)
(0.943636 3.97801e-05 0)
(0.943593 1.84545e-05 0)
(0.94354 -3.9008e-06 0)
(0.943512 -2.1255e-05 0)
(0.943527 -2.80979e-05 0)
(0.943555 -3.06264e-05 0)
(0.943608 -3.43195e-05 0)
(0.943661 -3.96414e-05 0)
(0.943728 -3.88393e-05 0)
(0.943793 -3.79327e-05 0)
(0.943868 -3.86994e-05 0)
(0.943944 -4.742e-05 0)
(0.944007 -5.43323e-05 0)
(0.944061 -6.08052e-05 0)
(0.944119 -5.73157e-05 0)
(0.944169 -5.34888e-05 0)
(0.944227 -4.59995e-05 0)
(0.944284 -4.09749e-05 0)
(0.944347 -3.5367e-05 0)
(0.944407 -3.32074e-05 0)
(0.944461 -2.92123e-05 0)
(0.944496 -2.81556e-05 0)
(0.944545 -2.43377e-05 0)
(0.944571 -2.23522e-05 0)
(0.944594 -1.63574e-05 0)
(0.944626 -1.41942e-05 0)
(0.944653 -1.35595e-05 0)
(0.944678 -1.49055e-05 0)
(0.944689 -9.20863e-06 0)
(0.944716 -9.51747e-06 0)
(1.00154 0.00420817 0)
(1.00583 0.00486164 0)
(1.00706 0.0042707 0)
(1.00694 0.00399211 0)
(1.00643 0.00366767 0)
(1.00548 0.00335572 0)
(1.00424 0.00311599 0)
(1.00288 0.00292693 0)
(1.00144 0.0027703 0)
(0.999981 0.00264008 0)
(0.998519 0.00253021 0)
(0.997073 0.00243627 0)
(0.995654 0.002354 0)
(0.994264 0.00228205 0)
(0.992907 0.00221715 0)
(0.991582 0.00215989 0)
(0.990287 0.00210683 0)
(0.989021 0.00206027 0)
(0.987782 0.00201667 0)
(0.986567 0.00197817 0)
(0.985372 0.0019404 0)
(0.984193 0.00190876 0)
(0.983031 0.00187903 0)
(0.98188 0.0018538 0)
(0.980738 0.0018283 0)
(0.979599 0.00180609 0)
(0.978463 0.00178874 0)
(0.97732 0.00177024 0)
(0.976179 0.00176162 0)
(0.975025 0.00174057 0)
(0.973906 0.00172658 0)
(0.972767 0.00161494 0)
(0.971456 0.00144919 0)
(0.971117 0.000478111 0)
(0.96955 -0.00145878 0)
(0.964201 -0.00284262 0)
(0.959258 -0.00320186 0)
(0.955889 -0.00291994 0)
(0.95389 -0.00240358 0)
(0.95281 -0.00187104 0)
(0.952206 -0.00143995 0)
(0.951855 -0.00105921 0)
(0.951636 -0.000764517 0)
(0.951455 -0.00052006 0)
(0.951271 -0.000342845 0)
(0.951078 -0.00020695 0)
(0.950866 -0.000112565 0)
(0.950645 -3.88493e-05 0)
(0.950433 8.61796e-06 0)
(0.950222 4.33587e-05 0)
(0.950021 6.26638e-05 0)
(0.949815 8.04106e-05 0)
(0.949613 9.67309e-05 0)
(0.949414 0.000117443 0)
(0.949208 0.000139962 0)
(0.948997 0.000166308 0)
(0.948788 0.00018516 0)
(0.948592 0.000195648 0)
(0.948413 0.000197851 0)
(0.948266 0.000181293 0)
(0.948123 0.00015506 0)
(0.94801 0.000124031 0)
(0.947901 9.30618e-05 0)
(0.947819 6.77043e-05 0)
(0.947754 5.33802e-05 0)
(0.947696 4.60334e-05 0)
(0.947647 4.2798e-05 0)
(0.947599 4.56447e-05 0)
(0.947546 4.85619e-05 0)
(0.94753 5.02779e-05 0)
(0.947515 4.20064e-05 0)
(0.947473 2.21561e-05 0)
(0.947423 -7.98461e-07 0)
(0.947395 -2.07237e-05 0)
(0.947409 -2.97807e-05 0)
(0.94744 -3.37569e-05 0)
(0.947492 -3.83424e-05 0)
(0.947546 -4.41845e-05 0)
(0.947609 -4.37847e-05 0)
(0.947674 -4.33126e-05 0)
(0.94775 -4.44365e-05 0)
(0.947822 -5.25156e-05 0)
(0.947883 -5.86542e-05 0)
(0.947934 -6.48764e-05 0)
(0.947986 -6.12999e-05 0)
(0.948032 -5.7561e-05 0)
(0.948087 -5.02966e-05 0)
(0.948143 -4.55117e-05 0)
(0.948204 -4.00875e-05 0)
(0.948261 -3.73986e-05 0)
(0.948311 -3.26443e-05 0)
(0.948347 -3.13258e-05 0)
(0.94839 -2.70107e-05 0)
(0.948416 -2.42816e-05 0)
(0.948438 -1.8634e-05 0)
(0.948469 -1.64391e-05 0)
(0.948495 -1.52879e-05 0)
(0.948518 -1.63192e-05 0)
(0.94853 -1.08375e-05 0)
(0.948555 -1.07169e-05 0)
(1.00139 0.00390607 0)
(1.00548 0.00467664 0)
(1.00694 0.00420881 0)
(1.00719 0.00399273 0)
(1.00709 0.00370847 0)
(1.00656 0.00342371 0)
(1.00572 0.00320079 0)
(1.00473 0.00302142 0)
(1.00364 0.00287016 0)
(1.00248 0.00274249 0)
(1.0013 0.00263328 0)
(1.0001 0.00253882 0)
(0.9989 0.0024553 0)
(0.997712 0.00238169 0)
(0.996538 0.00231494 0)
(0.995382 0.00225573 0)
(0.994244 0.00220081 0)
(0.993125 0.00215241 0)
(0.992025 0.00210715 0)
(0.990942 0.00206711 0)
(0.989874 0.00202811 0)
(0.988819 0.00199525 0)
(0.987777 0.00196469 0)
(0.986744 0.00193867 0)
(0.985719 0.00191279 0)
(0.984698 0.00189021 0)
(0.983678 0.00187318 0)
(0.982653 0.0018548 0)
(0.981632 0.00184643 0)
(0.980598 0.00182509 0)
(0.979598 0.00181048 0)
(0.978557 0.00170621 0)
(0.977393 0.00150631 0)
(0.977106 0.000568537 0)
(0.974796 -0.00116323 0)
(0.96918 -0.00243535 0)
(0.964087 -0.00286776 0)
(0.960522 -0.00270026 0)
(0.95829 -0.00227386 0)
(0.95698 -0.00179634 0)
(0.956177 -0.00139492 0)
(0.95566 -0.00103078 0)
(0.955305 -0.000743687 0)
(0.955023 -0.000502366 0)
(0.954771 -0.000325505 0)
(0.954526 -0.000189412 0)
(0.95428 -9.44045e-05 0)
(0.954036 -2.12005e-05 0)
(0.95381 2.56269e-05 0)
(0.953592 5.9746e-05 0)
(0.953384 7.88346e-05 0)
(0.95317 9.64249e-05 0)
(0.95297 0.000112415 0)
(0.952771 0.000133206 0)
(0.952568 0.000156159 0)
(0.952366 0.000182325 0)
(0.952169 0.000200561 0)
(0.951985 0.000209812 0)
(0.951818 0.000210184 0)
(0.951681 0.000192313 0)
(0.951547 0.000164741 0)
(0.95144 0.000132435 0)
(0.951338 0.000100397 0)
(0.951253 7.34261e-05 0)
(0.951192 5.79591e-05 0)
(0.951136 5.00407e-05 0)
(0.951092 4.65258e-05 0)
(0.951048 4.92859e-05 0)
(0.951005 5.10042e-05 0)
(0.950991 5.15408e-05 0)
(0.950973 4.43085e-05 0)
(0.950933 2.57893e-05 0)
(0.950884 2.24783e-06 0)
(0.950857 -2.01425e-05 0)
(0.950869 -3.15504e-05 0)
(0.950903 -3.70506e-05 0)
(0.950954 -4.24077e-05 0)
(0.951007 -4.8659e-05 0)
(0.951068 -4.87167e-05 0)
(0.951133 -4.87869e-05 0)
(0.951209 -5.01135e-05 0)
(0.951277 -5.74602e-05 0)
(0.951336 -6.28737e-05 0)
(0.951384 -6.86925e-05 0)
(0.951431 -6.5031e-05 0)
(0.951476 -6.14519e-05 0)
(0.951528 -5.45312e-05 0)
(0.951582 -5.00082e-05 0)
(0.951641 -4.46613e-05 0)
(0.951695 -4.13844e-05 0)
(0.951741 -3.60099e-05 0)
(0.951778 -3.43433e-05 0)
(0.951815 -2.94864e-05 0)
(0.951841 -2.61832e-05 0)
(0.951862 -2.08962e-05 0)
(0.951892 -1.86572e-05 0)
(0.951917 -1.6953e-05 0)
(0.951939 -1.77145e-05 0)
(0.951952 -1.24488e-05 0)
(0.951975 -1.18579e-05 0)
(1.00126 0.00362146 0)
(1.0051 0.00448797 0)
(1.00668 0.00412835 0)
(1.00718 0.00396783 0)
(1.00738 0.00372131 0)
(1.00718 0.00346353 0)
(1.00667 0.00325864 0)
(1.006 0.00309095 0)
(1.00521 0.00294731 0)
(1.00433 0.00282442 0)
(1.00339 0.00271798 0)
(1.00242 0.00262487 0)
(1.00144 0.00254177 0)
(1.00044 0.00246792 0)
(0.999448 0.00240054 0)
(0.998455 0.00234042 0)
(0.997469 0.0022845 0)
(0.996492 0.00223496 0)
(0.995525 0.00218865 0)
(0.994568 0.00214754 0)
(0.99362 0.00210771 0)
(0.99268 0.00207392 0)
(0.991749 0.00204276 0)
(0.990824 0.00201611 0)
(0.989904 0.00198997 0)
(0.988986 0.00196713 0)
(0.988068 0.00195041 0)
(0.987145 0.00193215 0)
(0.986226 0.00192401 0)
(0.985293 0.00190253 0)
(0.984391 0.0018881 0)
(0.98343 0.00178955 0)
(0.982387 0.00155994 0)
(0.982087 0.000686765 0)
(0.979219 -0.000830363 0)
(0.973457 -0.00200949 0)
(0.968288 -0.0025177 0)
(0.964586 -0.00246251 0)
(0.962174 -0.00212579 0)
(0.960679 -0.00170523 0)
(0.959713 -0.001336 0)
(0.959058 -0.000991015 0)
(0.95859 -0.000713961 0)
(0.958223 -0.000478268 0)
(0.957913 -0.000303512 0)
(0.957624 -0.000168519 0)
(0.957352 -7.39769e-05 0)
(0.95709 -1.96984e-06 0)
(0.956853 4.36862e-05 0)
(0.956628 7.68642e-05 0)
(0.956417 9.57123e-05 0)
(0.956199 0.000112858 0)
(0.956001 0.000128261 0)
(0.955803 0.000149034 0)
(0.955605 0.000172128 0)
(0.955411 0.000197786 0)
(0.955225 0.000215294 0)
(0.955052 0.000223302 0)
(0.954897 0.000221908 0)
(0.954767 0.00020283 0)
(0.954641 0.000174 0)
(0.95454 0.000140502 0)
(0.954444 0.000107675 0)
(0.954357 7.91887e-05 0)
(0.954299 6.24285e-05 0)
(0.954246 5.38528e-05 0)
(0.954206 4.99681e-05 0)
(0.954165 5.24534e-05 0)
(0.954131 5.30491e-05 0)
(0.954119 5.2869e-05 0)
(0.954098 4.67132e-05 0)
(0.954059 2.93249e-05 0)
(0.954013 5.21217e-06 0)
(0.953986 -1.94882e-05 0)
(0.953996 -3.3344e-05 0)