/*--------------------------------*- C++ -*----------------------------------*\
| =========                 |                                                 |
| \\      /  F ield         | OpenFOAM: The Open Source CFD Toolbox           |
|  \\    /   O peration     | Version:  4.1                                   |
|   \\  /    A nd           | Web:      www.OpenFOAM.org                      |
|    \\/     M anipulation  |                                                 |
\*---------------------------------------------------------------------------*/
FoamFile
{
    version     2.0;
    format      ascii;
    class       volVectorField;
    location    "0.15";
    object      U;
}
// * * * * * * * * * * * * * * * * * * * * * * * * * * * * * * * * * * * * * //

dimensions      [0 1 -1 0 0 0 0];

internalField   nonuniform List<vector> 
400
(
(170.595 170.595 0)
(9.1357 180.367 0)
(9.40468 190.633 0)
(9.46078 201.226 0)
(9.21259 211.874 0)
(8.56494 222.179 0)
(7.43964 231.612 0)
(5.80494 239.54 0)
(3.70513 245.307 0)
(1.27503 248.354 0)
(-1.27503 248.354 0)
(-3.70513 245.307 0)
(-5.80494 239.54 0)
(-7.43964 231.612 0)
(-8.56494 222.179 0)
(-9.21259 211.874 0)
(-9.46078 201.226 0)
(-9.40468 190.633 0)
(-9.1357 180.367 0)
(-170.595 170.595 0)
(180.367 9.1357 0)
(10.9019 10.9019 0)
(11.4544 13.0131 0)
(11.7801 15.4931 0)
(11.7404 18.3264 0)
(11.173 21.4274 0)
(9.92188 24.6069 0)
(7.89069 27.5555 0)
(5.10799 29.8712 0)
(1.77108 31.1559 0)
(-1.77108 31.1559 0)
(-5.10799 29.8712 0)
(-7.89069 27.5555 0)
(-9.92188 24.6069 0)
(-11.173 21.4274 0)
(-11.7404 18.3264 0)
(-11.7801 15.4931 0)
(-11.4544 13.0131 0)
(-10.9019 10.9019 0)
(-180.367 9.1357 0)
(190.633 9.40468 0)
(13.0131 11.4544 0)
(13.9958 13.9958 0)
(14.7741 17.1085 0)
(15.1469 20.8348 0)
(14.8455 25.1254 0)
(13.5677 29.7623 0)
(11.0692 34.2857 0)
(7.30561 37.9953 0)
(2.55977 40.1149 0)
(-2.55977 40.1149 0)
(-7.30561 37.9953 0)
(-11.0692 34.2857 0)
(-13.5677 29.7623 0)
(-14.8455 25.1254 0)
(-15.1469 20.8348 0)
(-14.7741 17.1085 0)
(-13.9958 13.9958 0)
(-13.0131 11.4544 0)
(-190.633 9.40468 0)
(201.226 9.46078 0)
(15.4931 11.7801 0)
(17.1085 14.7741 0)
(18.6191 18.6191 0)
(19.7573 23.4829 0)
(20.1005 29.445 0)
(19.0822 36.3428 0)
(16.1237 43.5531 0)
(10.9372 49.8439 0)
(3.89072 53.5999 0)
(-3.89072 53.5999 0)
(-10.9372 49.8439 0)
(-16.1237 43.5531 0)
(-19.0822 36.3428 0)
(-20.1005 29.445 0)
(-19.7573 23.4829 0)
(-18.6191 18.6191 0)
(-17.1085 14.7741 0)
(-15.4931 11.7801 0)
(-201.226 9.46078 0)
(211.874 9.21259 0)
(18.3264 11.7404 0)
(20.8348 15.1469 0)
(23.4829 19.7573 0)
(25.9728 25.9728 0)
(27.7054 34.1949 0)
(27.6758 44.5847 0)
(24.5703 56.537 0)
(17.3524 67.9711 0)
(6.31579 75.2889 0)
(-6.31579 75.2889 0)
(-17.3524 67.9711 0)
(-24.5703 56.537 0)
(-27.6758 44.5847 0)
(-27.7054 34.1949 0)
(-25.9728 25.9728 0)
(-23.4829 19.7573 0)
(-20.8348 15.1469 0)
(-18.3264 11.7404 0)
(-211.874 9.21259 0)
(222.179 8.56494 0)
(21.4274 11.173 0)
(25.1254 14.8455 0)
(29.445 20.1005 0)
(34.1949 27.7054 0)
(38.7124 38.7124 0)
(41.4243 54.2739 0)
(39.5101 74.7355 0)
(29.6891 97.3067 0)
(11.2086 113.565 0)
(-11.2086 113.565 0)
(-29.6891 97.3067 0)
(-39.5101 74.7355 0)
(-41.4243 54.2739 0)
(-38.7124 38.7124 0)
(-34.1949 27.7054 0)
(-29.445 20.1005 0)
(-25.1254 14.8455 0)
(-21.4274 11.173 0)
(-222.179 8.56494 0)
(231.612 7.43964 0)
(24.6069 9.92188 0)
(29.7623 13.5677 0)
(36.3428 19.0822 0)
(44.5847 27.6758 0)
(54.2739 41.4243 0)
(63.6989 63.6989 0)
(67.603 98.8514 0)
(56.182 147.496 0)
(22.5742 191.229 0)
(-22.5742 191.229 0)
(-56.182 147.496 0)
(-67.603 98.8514 0)
(-63.6989 63.6989 0)
(-54.2739 41.4243 0)
(-44.5847 27.6758 0)
(-36.3428 19.0822 0)
(-29.7623 13.5677 0)
(-24.6069 9.92188 0)
(-231.612 7.43964 0)
(239.54 5.80494 0)
(27.5555 7.89069 0)
(34.2857 11.0692 0)
(43.5531 16.1237 0)
(56.537 24.5703 0)
(74.7355 39.5101 0)
(98.8514 67.603 0)
(123.308 123.308 0)
(122.066 232.988 0)
(54.9408 390.128 0)
(-54.9408 390.128 0)
(-122.066 232.988 0)
(-123.308 123.308 0)
(-98.8514 67.603 0)
(-74.7355 39.5101 0)
(-56.537 24.5703 0)
(-43.5531 16.1237 0)
(-34.2857 11.0692 0)
(-27.5555 7.89069 0)
(-239.54 5.80494 0)
(245.307 3.70513 0)
(29.8712 5.10799 0)
(37.9953 7.30561 0)
(49.8439 10.9372 0)
(67.9711 17.3524 0)
(97.3067 29.6891 0)
(147.496 56.182 0)
(232.988 122.066 0)
(323.003 323.003 0)
(179.715 1140.42 0)
(-179.715 1140.42 0)
(-323.003 323.003 0)
(-232.988 122.066 0)
(-147.496 56.182 0)
(-97.3067 29.6891 0)
(-67.9711 17.3524 0)
(-49.8439 10.9372 0)
(-37.9953 7.30561 0)
(-29.8712 5.10799 0)
(-245.307 3.70513 0)
(248.354 1.27503 0)
(31.1559 1.77108 0)
(40.1149 2.55977 0)
(53.5999 3.89072 0)
(75.2889 6.31579 0)
(113.565 11.2086 0)
(191.229 22.5742 0)
(390.128 54.9408 0)
(1140.42 179.715 0)
(872.353 872.353 0)
(-872.353 872.353 0)
(-1140.42 179.715 0)
(-390.128 54.9408 0)
(-191.229 22.5742 0)
(-113.565 11.2086 0)
(-75.2889 6.31579 0)
(-53.5999 3.89072 0)
(-40.1149 2.55977 0)
(-31.1559 1.77108 0)
(-248.354 1.27503 0)
(248.354 -1.27503 0)
(31.1559 -1.77108 0)
(40.1149 -2.55977 0)
(53.5999 -3.89072 0)
(75.2889 -6.31579 0)
(113.565 -11.2086 0)
(191.229 -22.5742 0)
(390.128 -54.9408 0)
(1140.42 -179.715 0)
(872.353 -872.353 0)
(-872.353 -872.353 0)
(-1140.42 -179.715 0)
(-390.128 -54.9408 0)
(-191.229 -22.5742 0)
(-113.565 -11.2086 0)
(-75.2889 -6.31579 0)
(-53.5999 -3.89072 0)
(-40.1149 -2.55977 0)
(-31.1559 -1.77108 0)
(-248.354 -1.27503 0)
(245.307 -3.70513 0)
(29.8712 -5.10799 0)
(37.9953 -7.30561 0)
(49.8439 -10.9372 0)
(67.9711 -17.3524 0)
(97.3067 -29.6891 0)
(147.496 -56.182 0)
(232.988 -122.066 0)
(323.003 -323.003 0)
(179.715 -1140.42 0)
(-179.715 -1140.42 0)
(-323.003 -323.003 0)
(-232.988 -122.066 0)
(-147.496 -56.182 0)
(-97.3067 -29.6891 0)
(-67.9711 -17.3524 0)
(-49.8439 -10.9372 0)
(-37.9953 -7.30561 0)
(-29.8712 -5.10799 0)
(-245.307 -3.70513 0)
(239.54 -5.80494 0)
(27.5555 -7.89069 0)
(34.2857 -11.0692 0)
(43.5531 -16.1237 0)
(56.537 -24.5703 0)
(74.7355 -39.5101 0)
(98.8514 -67.603 0)
(123.308 -123.308 0)
(122.066 -232.988 0)
(54.9408 -390.128 0)
(-54.9408 -390.128 0)
(-122.066 -232.988 0)
(-123.308 -123.308 0)
(-98.8514 -67.603 0)
(-74.7355 -39.5101 0)
(-56.537 -24.5703 0)
(-43.5531 -16.1237 0)
(-34.2857 -11.0692 0)
(-27.5555 -7.89069 0)
(-239.54 -5.80494 0)
(231.612 -7.43964 0)
(24.6069 -9.92188 0)
(29.7623 -13.5677 0)
(36.3428 -19.0822 0)
(44.5847 -27.6758 0)
(54.2739 -41.4243 0)
(63.6989 -63.6989 0)
(67.603 -98.8514 0)
(56.182 -147.496 0)
(22.5742 -191.229 0)
(-22.5742 -191.229 0)
(-56.182 -147.496 0)
(-67.603 -98.8514 0)
(-63.6989 -63.6989 0)
(-54.2739 -41.4243 0)
(-44.5847 -27.6758 0)
(-36.3428 -19.0822 0)
(-29.7623 -13.5677 0)
(-24.6069 -9.92188 0)
(-231.612 -7.43964 0)
(222.179 -8.56494 0)
(21.4274 -11.173 0)
(25.1254 -14.8455 0)
(29.445 -20.1005 0)
(34.1949 -27.7054 0)
(38.7124 -38.7124 0)
(41.4243 -54.2739 0)
(39.5101 -74.7355 0)
(29.6891 -97.3067 0)
(11.2086 -113.565 0)
(-11.2086 -113.565 0)
(-29.6891 -97.3067 0)
(-39.5101 -74.7355 0)
(-41.4243 -54.2739 0)
(-38.7124 -38.7124 0)
(-34.1949 -27.7054 0)
(-29.445 -20.1005 0)
(-25.1254 -14.8455 0)
(-21.4274 -11.173 0)
(-222.179 -8.56494 0)
(211.874 -9.21259 0)
(18.3264 -11.7404 0)
(20.8348 -15.1469 0)
(23.4829 -19.7573 0)
(25.9728 -25.9728 0)
(27.7054 -34.1949 0)
(27.6758 -44.5847 0)
(24.5703 -56.537 0)
(17.3524 -67.9711 0)
(6.31579 -75.2889 0)
(-6.31579 -75.2889 0)
(-17.3524 -67.9711 0)
(-24.5703 -56.537 0)
(-27.6758 -44.5847 0)
(-27.7054 -34.1949 0)
(-25.9728 -25.9728 0)
(-23.4829 -19.7573 0)
(-20.8348 -15.1469 0)
(-18.3264 -11.7404 0)
(-211.874 -9.21259 0)
(201.226 -9.46078 0)
(15.4931 -11.7801 0)
(17.1085 -14.7741 0)
(18.6191 -18.6191 0)
(19.7573 -23.4829 0)
(20.1005 -29.445 0)
(19.0822 -36.3428 0)
(16.1237 -43.5531 0)
(10.9372 -49.8439 0)
(3.89072 -53.5999 0)
(-3.89072 -53.5999 0)
(-10.9372 -49.8439 0)
(-16.1237 -43.5531 0)
(-19.0822 -36.3428 0)
(-20.1005 -29.445 0)
(-19.7573 -23.4829 0)
(-18.6191 -18.6191 0)
(-17.1085 -14.7741 0)
(-15.4931 -11.7801 0)
(-201.226 -9.46078 0)
(190.633 -9.40468 0)
(13.0131 -11.4544 0)
(13.9958 -13.9958 0)
(14.7741 -17.1085 0)
(15.1469 -20.8348 0)
(14.8455 -25.1254 0)
(13.5677 -29.7623 0)
(11.0692 -34.2857 0)
(7.30561 -37.9953 0)
(2.55977 -40.1149 0)
(-2.55977 -40.1149 0)
(-7.30561 -37.9953 0)
(-11.0692 -34.2857 0)
(-13.5677 -29.7623 0)
(-14.8455 -25.1254 0)
(-15.1469 -20.8348 0)
(-14.7741 -17.1085 0)
(-13.9958 -13.9958 0)
(-13.0131 -11.4544 0)
(-190.633 -9.40468 0)
(180.367 -9.1357 0)
(10.9019 -10.9019 0)
(11.4544 -13.0131 0)
(11.7801 -15.4931 0)
(11.7404 -18.3264 0)
(11.173 -21.4274 0)
(9.92188 -24.6069 0)
(7.89069 -27.5555 0)
(5.10799 -29.8712 0)
(1.77108 -31.1559 0)
(-1.77108 -31.1559 0)
(-5.10799 -29.8712 0)
(-7.89069 -27.5555 0)
(-9.92188 -24.6069 0)
(-11.173 -21.4274 0)
(-11.7404 -18.3264 0)
(-11.7801 -15.4931 0)
(-11.4544 -13.0131 0)
(-10.9019 -10.9019 0)
(-180.367 -9.1357 0)
(170.595 -170.595 0)
(9.1357 -180.367 0)
(9.40468 -190.633 0)
(9.46078 -201.226 0)
(9.21259 -211.874 0)
(8.56494 -222.179 0)
(7.43964 -231.612 0)
(5.80494 -239.54 0)
(3.70513 -245.307 0)
(1.27503 -248.354 0)
(-1.27503 -248.354 0)
(-3.70513 -245.307 0)
(-5.80494 -239.54 0)
(-7.43964 -231.612 0)
(-8.56494 -222.179 0)
(-9.21259 -211.874 0)
(-9.46078 -201.226 0)
(-9.40468 -190.633 0)
(-9.1357 -180.367 0)
(-170.595 -170.595 0)
)
;

boundaryField
{
    movingWall
    {
        type            fixedValue;
        value           uniform (1 0 0);
    }
    fixedWalls
    {
        type            fixedValue;
        value           uniform (0 0 0);
    }
    frontAndBack
    {
        type            empty;
    }
}


// ************************************************************************* //
