/*--------------------------------*- C++ -*----------------------------------*\
| =========                 |                                                 |
| \\      /  F ield         | OpenFOAM: The Open Source CFD Toolbox           |
|  \\    /   O peration     | Version:  4.1                                   |
|   \\  /    A nd           | Web:      www.OpenFOAM.org                      |
|    \\/     M anipulation  |                                                 |
\*---------------------------------------------------------------------------*/
FoamFile
{
    version     2.0;
    format      ascii;
    class       volVectorField;
    location    "1";
    object      U;
}
// * * * * * * * * * * * * * * * * * * * * * * * * * * * * * * * * * * * * * //

dimensions      [0 1 -1 0 0 0 0];

internalField   nonuniform List<vector> 
400
(
(3.22928e-13 3.22928e-13 0)
(1.72934e-14 3.41425e-13 0)
(1.78026e-14 3.60858e-13 0)
(1.79088e-14 3.8091e-13 0)
(1.7439e-14 4.01066e-13 0)
(1.6213e-14 4.20573e-13 0)
(1.40829e-14 4.38429e-13 0)
(1.09885e-14 4.53438e-13 0)
(7.01362e-15 4.64354e-13 0)
(2.41357e-15 4.70121e-13 0)
(-2.41357e-15 4.70121e-13 0)
(-7.01362e-15 4.64354e-13 0)
(-1.09885e-14 4.53438e-13 0)
(-1.40829e-14 4.38429e-13 0)
(-1.6213e-14 4.20573e-13 0)
(-1.7439e-14 4.01066e-13 0)
(-1.79088e-14 3.8091e-13 0)
(-1.78026e-14 3.60858e-13 0)
(-1.72934e-14 3.41425e-13 0)
(-3.22928e-13 3.22928e-13 0)
(3.41425e-13 1.72934e-14 0)
(2.06368e-14 2.06368e-14 0)
(2.16826e-14 2.46331e-14 0)
(2.22992e-14 2.93276e-14 0)
(2.22241e-14 3.46909e-14 0)
(2.115e-14 4.05609e-14 0)
(1.87816e-14 4.65796e-14 0)
(1.49367e-14 5.21611e-14 0)
(9.66915e-15 5.65447e-14 0)
(3.35257e-15 5.89766e-14 0)
(-3.35257e-15 5.89766e-14 0)
(-9.66915e-15 5.65447e-14 0)
(-1.49367e-14 5.21611e-14 0)
(-1.87816e-14 4.65796e-14 0)
(-2.115e-14 4.05609e-14 0)
(-2.22241e-14 3.46909e-14 0)
(-2.22992e-14 2.93276e-14 0)
(-2.16826e-14 2.46331e-14 0)
(-2.06368e-14 2.06368e-14 0)
(-3.41425e-13 1.72934e-14 0)
(3.60858e-13 1.78026e-14 0)
(2.46331e-14 2.16826e-14 0)
(2.64933e-14 2.64933e-14 0)
(2.79666e-14 3.23856e-14 0)
(2.86722e-14 3.94392e-14 0)
(2.81017e-14 4.7561e-14 0)
(2.5683e-14 5.63385e-14 0)
(2.09535e-14 6.49011e-14 0)
(1.38291e-14 7.19232e-14 0)
(4.84551e-15 7.59355e-14 0)
(-4.84551e-15 7.59355e-14 0)
(-1.38291e-14 7.19232e-14 0)
(-2.09535e-14 6.49011e-14 0)
(-2.5683e-14 5.63385e-14 0)
(-2.81017e-14 4.7561e-14 0)
(-2.86722e-14 3.94392e-14 0)
(-2.79666e-14 3.23856e-14 0)
(-2.64933e-14 2.64933e-14 0)
(-2.46331e-14 2.16826e-14 0)
(-3.60858e-13 1.78026e-14 0)
(3.8091e-13 1.79088e-14 0)
(2.93276e-14 2.22992e-14 0)
(3.23856e-14 2.79666e-14 0)
(3.5245e-14 3.5245e-14 0)
(3.73995e-14 4.4452e-14 0)
(3.80492e-14 5.57379e-14 0)
(3.61217e-14 6.87951e-14 0)
(3.05214e-14 8.24438e-14 0)
(2.07036e-14 9.43519e-14 0)
(7.36493e-15 1.01462e-13 0)
(-7.36493e-15 1.01462e-13 0)
(-2.07036e-14 9.43519e-14 0)
(-3.05214e-14 8.24438e-14 0)
(-3.61217e-14 6.87951e-14 0)
(-3.80492e-14 5.57379e-14 0)
(-3.73995e-14 4.4452e-14 0)
(-3.5245e-14 3.5245e-14 0)
(-3.23856e-14 2.79666e-14 0)
(-2.93276e-14 2.22992e-14 0)
(-3.8091e-13 1.79088e-14 0)
(4.01066e-13 1.7439e-14 0)
(3.46909e-14 2.22241e-14 0)
(3.94392e-14 2.86722e-14 0)
(4.4452e-14 3.73995e-14 0)
(4.91651e-14 4.91651e-14 0)
(5.24448e-14 6.47292e-14 0)
(5.23889e-14 8.43965e-14 0)
(4.65102e-14 1.07022e-13 0)
(3.28472e-14 1.28666e-13 0)
(1.19555e-14 1.42518e-13 0)
(-1.19555e-14 1.42518e-13 0)
(-3.28472e-14 1.28666e-13 0)
(-4.65102e-14 1.07022e-13 0)
(-5.23889e-14 8.43965e-14 0)
(-5.24448e-14 6.47292e-14 0)
(-4.91651e-14 4.91651e-14 0)
(-4.4452e-14 3.73995e-14 0)
(-3.94392e-14 2.86722e-14 0)
(-3.46909e-14 2.22241e-14 0)
(-4.01066e-13 1.7439e-14 0)
(4.20573e-13 1.6213e-14 0)
(4.05609e-14 2.115e-14 0)
(4.7561e-14 2.81017e-14 0)
(5.57379e-14 3.80492e-14 0)
(6.47292e-14 5.24448e-14 0)
(7.32806e-14 7.32806e-14 0)
(7.84141e-14 1.02738e-13 0)
(7.47906e-14 1.4147e-13 0)
(5.62e-14 1.84197e-13 0)
(2.12172e-14 2.14973e-13 0)
(-2.12172e-14 2.14973e-13 0)
(-5.62e-14 1.84197e-13 0)
(-7.47906e-14 1.4147e-13 0)
(-7.84141e-14 1.02738e-13 0)
(-7.32806e-14 7.32806e-14 0)
(-6.47292e-14 5.24448e-14 0)
(-5.57379e-14 3.80492e-14 0)
(-4.7561e-14 2.81017e-14 0)
(-4.05609e-14 2.115e-14 0)
(-4.20573e-13 1.6213e-14 0)
(4.38429e-13 1.40829e-14 0)
(4.65796e-14 1.87816e-14 0)
(5.63385e-14 2.5683e-14 0)
(6.87951e-14 3.61217e-14 0)
(8.43965e-14 5.23889e-14 0)
(1.02738e-13 7.84141e-14 0)
(1.20579e-13 1.20579e-13 0)
(1.27969e-13 1.87121e-13 0)
(1.0635e-13 2.79203e-13 0)
(4.27318e-14 3.61986e-13 0)
(-4.27318e-14 3.61986e-13 0)
(-1.0635e-13 2.79203e-13 0)
(-1.27969e-13 1.87121e-13 0)
(-1.20579e-13 1.20579e-13 0)
(-1.02738e-13 7.84141e-14 0)
(-8.43965e-14 5.23889e-14 0)
(-6.87951e-14 3.61217e-14 0)
(-5.63385e-14 2.5683e-14 0)
(-4.65796e-14 1.87816e-14 0)
(-4.38429e-13 1.40829e-14 0)
(4.53438e-13 1.09885e-14 0)
(5.21611e-14 1.49367e-14 0)
(6.49011e-14 2.09535e-14 0)
(8.24438e-14 3.05214e-14 0)
(1.07022e-13 4.65102e-14 0)
(1.4147e-13 7.47906e-14 0)
(1.87121e-13 1.27969e-13 0)
(2.33415e-13 2.33415e-13 0)
(2.31065e-13 4.41034e-13 0)
(1.04e-13 7.38493e-13 0)
(-1.04e-13 7.38493e-13 0)
(-2.31065e-13 4.41034e-13 0)
(-2.33415e-13 2.33415e-13 0)
(-1.87121e-13 1.27969e-13 0)
(-1.4147e-13 7.47906e-14 0)
(-1.07022e-13 4.65102e-14 0)
(-8.24438e-14 3.05214e-14 0)
(-6.49011e-14 2.09535e-14 0)
(-5.21611e-14 1.49367e-14 0)
(-4.53438e-13 1.09885e-14 0)
(4.64354e-13 7.01362e-15 0)
(5.65447e-14 9.66915e-15 0)
(7.19232e-14 1.38291e-14 0)
(9.43519e-14 2.07036e-14 0)
(1.28666e-13 3.28472e-14 0)
(1.84197e-13 5.62e-14 0)
(2.79203e-13 1.0635e-13 0)
(4.41034e-13 2.31065e-13 0)
(6.11427e-13 6.11427e-13 0)
(3.40191e-13 2.15875e-12 0)
(-3.40191e-13 2.15875e-12 0)
(-6.11427e-13 6.11427e-13 0)
(-4.41034e-13 2.31065e-13 0)
(-2.79203e-13 1.0635e-13 0)
(-1.84197e-13 5.62e-14 0)
(-1.28666e-13 3.28472e-14 0)
(-9.43519e-14 2.07036e-14 0)
(-7.19232e-14 1.38291e-14 0)
(-5.65447e-14 9.66915e-15 0)
(-4.64354e-13 7.01362e-15 0)
(4.70121e-13 2.41357e-15 0)
(5.89766e-14 3.35257e-15 0)
(7.59355e-14 4.84551e-15 0)
(1.01462e-13 7.36493e-15 0)
(1.42518e-13 1.19555e-14 0)
(2.14973e-13 2.12172e-14 0)
(3.61986e-13 4.27318e-14 0)
(7.38493e-13 1.04e-13 0)
(2.15875e-12 3.40191e-13 0)
(1.65132e-12 1.65132e-12 0)
(-1.65132e-12 1.65132e-12 0)
(-2.15875e-12 3.40191e-13 0)
(-7.38493e-13 1.04e-13 0)
(-3.61986e-13 4.27318e-14 0)
(-2.14973e-13 2.12172e-14 0)
(-1.42518e-13 1.19555e-14 0)
(-1.01462e-13 7.36493e-15 0)
(-7.59355e-14 4.84551e-15 0)
(-5.89766e-14 3.35257e-15 0)
(-4.70121e-13 2.41357e-15 0)
(4.70121e-13 -2.41357e-15 0)
(5.89766e-14 -3.35257e-15 0)
(7.59355e-14 -4.84551e-15 0)
(1.01462e-13 -7.36493e-15 0)
(1.42518e-13 -1.19555e-14 0)
(2.14973e-13 -2.12172e-14 0)
(3.61986e-13 -4.27318e-14 0)
(7.38493e-13 -1.04e-13 0)
(2.15875e-12 -3.40191e-13 0)
(1.65132e-12 -1.65132e-12 0)
(-1.65132e-12 -1.65132e-12 0)
(-2.15875e-12 -3.40191e-13 0)
(-7.38493e-13 -1.04e-13 0)
(-3.61986e-13 -4.27318e-14 0)
(-2.14973e-13 -2.12172e-14 0)
(-1.42518e-13 -1.19555e-14 0)
(-1.01462e-13 -7.36493e-15 0)
(-7.59355e-14 -4.84551e-15 0)
(-5.89766e-14 -3.35257e-15 0)
(-4.70121e-13 -2.41357e-15 0)
(4.64354e-13 -7.01362e-15 0)
(5.65447e-14 -9.66915e-15 0)
(7.19232e-14 -1.38291e-14 0)
(9.43519e-14 -2.07036e-14 0)
(1.28666e-13 -3.28472e-14 0)
(1.84197e-13 -5.62e-14 0)
(2.79203e-13 -1.0635e-13 0)
(4.41034e-13 -2.31065e-13 0)
(6.11427e-13 -6.11427e-13 0)
(3.40191e-13 -2.15875e-12 0)
(-3.40191e-13 -2.15875e-12 0)
(-6.11427e-13 -6.11427e-13 0)
(-4.41034e-13 -2.31065e-13 0)
(-2.79203e-13 -1.0635e-13 0)
(-1.84197e-13 -5.62e-14 0)
(-1.28666e-13 -3.28472e-14 0)
(-9.43519e-14 -2.07036e-14 0)
(-7.19232e-14 -1.38291e-14 0)
(-5.65447e-14 -9.66915e-15 0)
(-4.64354e-13 -7.01362e-15 0)
(4.53438e-13 -1.09885e-14 0)
(5.21611e-14 -1.49367e-14 0)
(6.49011e-14 -2.09535e-14 0)
(8.24438e-14 -3.05214e-14 0)
(1.07022e-13 -4.65102e-14 0)
(1.4147e-13 -7.47906e-14 0)
(1.87121e-13 -1.27969e-13 0)
(2.33415e-13 -2.33415e-13 0)
(2.31065e-13 -4.41034e-13 0)
(1.04e-13 -7.38493e-13 0)
(-1.04e-13 -7.38493e-13 0)
(-2.31065e-13 -4.41034e-13 0)
(-2.33415e-13 -2.33415e-13 0)
(-1.87121e-13 -1.27969e-13 0)
(-1.4147e-13 -7.47906e-14 0)
(-1.07022e-13 -4.65102e-14 0)
(-8.24438e-14 -3.05214e-14 0)
(-6.49011e-14 -2.09535e-14 0)
(-5.21611e-14 -1.49367e-14 0)
(-4.53438e-13 -1.09885e-14 0)
(4.38429e-13 -1.40829e-14 0)
(4.65796e-14 -1.87816e-14 0)
(5.63385e-14 -2.5683e-14 0)
(6.87951e-14 -3.61217e-14 0)
(8.43965e-14 -5.23889e-14 0)
(1.02738e-13 -7.84141e-14 0)
(1.20579e-13 -1.20579e-13 0)
(1.27969e-13 -1.87121e-13 0)
(1.0635e-13 -2.79203e-13 0)
(4.27318e-14 -3.61986e-13 0)
(-4.27318e-14 -3.61986e-13 0)
(-1.0635e-13 -2.79203e-13 0)
(-1.27969e-13 -1.87121e-13 0)
(-1.20579e-13 -1.20579e-13 0)
(-1.02738e-13 -7.84141e-14 0)
(-8.43965e-14 -5.23889e-14 0)
(-6.87951e-14 -3.61217e-14 0)
(-5.63385e-14 -2.5683e-14 0)
(-4.65796e-14 -1.87816e-14 0)
(-4.38429e-13 -1.40829e-14 0)
(4.20573e-13 -1.6213e-14 0)
(4.05609e-14 -2.115e-14 0)
(4.7561e-14 -2.81017e-14 0)
(5.57379e-14 -3.80492e-14 0)
(6.47292e-14 -5.24448e-14 0)
(7.32806e-14 -7.32806e-14 0)
(7.84141e-14 -1.02738e-13 0)
(7.47906e-14 -1.4147e-13 0)
(5.62e-14 -1.84197e-13 0)
(2.12172e-14 -2.14973e-13 0)
(-2.12172e-14 -2.14973e-13 0)
(-5.62e-14 -1.84197e-13 0)
(-7.47906e-14 -1.4147e-13 0)
(-7.84141e-14 -1.02738e-13 0)
(-7.32806e-14 -7.32806e-14 0)
(-6.47292e-14 -5.24448e-14 0)
(-5.57379e-14 -3.80492e-14 0)
(-4.7561e-14 -2.81017e-14 0)
(-4.05609e-14 -2.115e-14 0)
(-4.20573e-13 -1.6213e-14 0)
(4.01066e-13 -1.7439e-14 0)
(3.46909e-14 -2.22241e-14 0)
(3.94392e-14 -2.86722e-14 0)
(4.4452e-14 -3.73995e-14 0)
(4.91651e-14 -4.91651e-14 0)
(5.24448e-14 -6.47292e-14 0)
(5.23889e-14 -8.43965e-14 0)
(4.65102e-14 -1.07022e-13 0)
(3.28472e-14 -1.28666e-13 0)
(1.19555e-14 -1.42518e-13 0)
(-1.19555e-14 -1.42518e-13 0)
(-3.28472e-14 -1.28666e-13 0)
(-4.65102e-14 -1.07022e-13 0)
(-5.23889e-14 -8.43965e-14 0)
(-5.24448e-14 -6.47292e-14 0)
(-4.91651e-14 -4.91651e-14 0)
(-4.4452e-14 -3.73995e-14 0)
(-3.94392e-14 -2.86722e-14 0)
(-3.46909e-14 -2.22241e-14 0)
(-4.01066e-13 -1.7439e-14 0)
(3.8091e-13 -1.79088e-14 0)
(2.93276e-14 -2.22992e-14 0)
(3.23856e-14 -2.79666e-14 0)
(3.5245e-14 -3.5245e-14 0)
(3.73995e-14 -4.4452e-14 0)
(3.80492e-14 -5.57379e-14 0)
(3.61217e-14 -6.87951e-14 0)
(3.05214e-14 -8.24438e-14 0)
(2.07036e-14 -9.43519e-14 0)
(7.36493e-15 -1.01462e-13 0)
(-7.36493e-15 -1.01462e-13 0)
(-2.07036e-14 -9.43519e-14 0)
(-3.05214e-14 -8.24438e-14 0)
(-3.61217e-14 -6.87951e-14 0)
(-3.80492e-14 -5.57379e-14 0)
(-3.73995e-14 -4.4452e-14 0)
(-3.5245e-14 -3.5245e-14 0)
(-3.23856e-14 -2.79666e-14 0)
(-2.93276e-14 -2.22992e-14 0)
(-3.8091e-13 -1.79088e-14 0)
(3.60858e-13 -1.78026e-14 0)
(2.46331e-14 -2.16826e-14 0)
(2.64933e-14 -2.64933e-14 0)
(2.79666e-14 -3.23856e-14 0)
(2.86722e-14 -3.94392e-14 0)
(2.81017e-14 -4.7561e-14 0)
(2.5683e-14 -5.63385e-14 0)
(2.09535e-14 -6.49011e-14 0)
(1.38291e-14 -7.19232e-14 0)
(4.84551e-15 -7.59355e-14 0)
(-4.84551e-15 -7.59355e-14 0)
(-1.38291e-14 -7.19232e-14 0)
(-2.09535e-14 -6.49011e-14 0)
(-2.5683e-14 -5.63385e-14 0)
(-2.81017e-14 -4.7561e-14 0)
(-2.86722e-14 -3.94392e-14 0)
(-2.79666e-14 -3.23856e-14 0)
(-2.64933e-14 -2.64933e-14 0)
(-2.46331e-14 -2.16826e-14 0)
(-3.60858e-13 -1.78026e-14 0)
(3.41425e-13 -1.72934e-14 0)
(2.06368e-14 -2.06368e-14 0)
(2.16826e-14 -2.46331e-14 0)
(2.22992e-14 -2.93276e-14 0)
(2.22241e-14 -3.46909e-14 0)
(2.115e-14 -4.05609e-14 0)
(1.87816e-14 -4.65796e-14 0)
(1.49367e-14 -5.21611e-14 0)
(9.66915e-15 -5.65447e-14 0)
(3.35257e-15 -5.89766e-14 0)
(-3.35257e-15 -5.89766e-14 0)
(-9.66915e-15 -5.65447e-14 0)
(-1.49367e-14 -5.21611e-14 0)
(-1.87816e-14 -4.65796e-14 0)
(-2.115e-14 -4.05609e-14 0)
(-2.22241e-14 -3.46909e-14 0)
(-2.22992e-14 -2.93276e-14 0)
(-2.16826e-14 -2.46331e-14 0)
(-2.06368e-14 -2.06368e-14 0)
(-3.41425e-13 -1.72934e-14 0)
(3.22928e-13 -3.22928e-13 0)
(1.72934e-14 -3.41425e-13 0)
(1.78026e-14 -3.60858e-13 0)
(1.79088e-14 -3.8091e-13 0)
(1.7439e-14 -4.01066e-13 0)
(1.6213e-14 -4.20573e-13 0)
(1.40829e-14 -4.38429e-13 0)
(1.09885e-14 -4.53438e-13 0)
(7.01362e-15 -4.64354e-13 0)
(2.41357e-15 -4.70121e-13 0)
(-2.41357e-15 -4.70121e-13 0)
(-7.01362e-15 -4.64354e-13 0)
(-1.09885e-14 -4.53438e-13 0)
(-1.40829e-14 -4.38429e-13 0)
(-1.6213e-14 -4.20573e-13 0)
(-1.7439e-14 -4.01066e-13 0)
(-1.79088e-14 -3.8091e-13 0)
(-1.78026e-14 -3.60858e-13 0)
(-1.72934e-14 -3.41425e-13 0)
(-3.22928e-13 -3.22928e-13 0)
)
;

boundaryField
{
    movingWall
    {
        type            fixedValue;
        value           uniform (1 0 0);
    }
    fixedWalls
    {
        type            fixedValue;
        value           uniform (0 0 0);
    }
    frontAndBack
    {
        type            empty;
    }
}


// ************************************************************************* //
