/*--------------------------------*- C++ -*----------------------------------*\
| =========                 |                                                 |
| \\      /  F ield         | OpenFOAM: The Open Source CFD Toolbox           |
|  \\    /   O peration     | Version:  4.1                                   |
|   \\  /    A nd           | Web:      www.OpenFOAM.org                      |
|    \\/     M anipulation  |                                                 |
\*---------------------------------------------------------------------------*/
FoamFile
{
    version     2.0;
    format      ascii;
    class       volScalarField;
    location    "0";
    object      result;
}
// * * * * * * * * * * * * * * * * * * * * * * * * * * * * * * * * * * * * * //

dimensions      [0 0 0 0 0 0 0];

internalField   nonuniform List<scalar> 
400
(
0.5
0.241464
0.121959
0.0642586
0.0351732
0.0199028
0.0115839
0.00690277
0.00419442
0.00259033
0.00162142
0.00102649
0.000656106
0.000422821
0.000274419
0.000179206
0.000117667
7.76474e-05
5.15938e-05
3.56275e-05
0.758536
0.5
0.316336
0.196954
0.122144
0.0759189
0.0474394
0.0298435
0.0189094
0.012067
0.00775285
0.00501265
0.00325985
0.00213126
0.00140016
0.000923913
0.000612119
0.000407116
0.000272394
0.000189221
0.878041
0.683664
0.5
0.351647
0.241335
0.163142
0.109291
0.0728464
0.0484378
0.032186
0.0213969
0.0142413
0.00949415
0.00634141
0.00424421
0.00284649
0.00191308
0.00128863
0.000872032
0.000611751
0.935741
0.803046
0.648353
0.5
0.372799
0.271181
0.193738
0.136605
0.0954073
0.0661792
0.045682
0.0314264
0.02157
0.0147831
0.010123
0.00692915
0.00474278
0.00324758
0.00223058
0.00158525
0.964827
0.877856
0.758665
0.627201
0.5
0.387141
0.29289
0.217556
0.159269
0.115266
0.0826655
0.0588604
0.0416729
0.029372
0.020629
0.0144484
0.0100979
0.00704716
0.00492521
0.00355428
0.980097
0.924081
0.836858
0.728819
0.612859
0.5
0.397634
0.309541
0.236717
0.178372
0.132768
0.0978219
0.0714655
0.0518432
0.0373879
0.0268311
0.0191766
0.0136621
0.0097322
0.00714287
0.988416
0.952561
0.890709
0.806262
0.70711
0.602366
0.5
0.405718
0.322809
0.252535
0.194711
0.148269
0.111706
0.0833917
0.0617665
0.0454407
0.0332366
0.0241941
0.0175843
0.0131386
0.993097
0.970157
0.927154
0.863395
0.782444
0.690459
0.594282
0.5
0.412182
0.33369
0.265863
0.208869
0.162082
0.124423
0.0946126
0.0713483
0.0534138
0.0397413
0.0294842
0.0224383
0.995806
0.981091
0.951562
0.904593
0.840731
0.763283
0.677191
0.587818
0.5
0.417497
0.342815
0.277285
0.221277
0.174468
0.13609
0.105143
0.0805432
0.0612464
0.0463871
0.035961
0.99741
0.987933
0.967814
0.933821
0.884734
0.821628
0.747465
0.66631
0.582503
0.5
0.421964
0.350606
0.287208
0.232259
0.185642
0.146822
0.115019
0.0893563
0.0690746
0.0545411
0.998379
0.992247
0.978603
0.954318
0.917335
0.867232
0.805289
0.734137
0.657185
0.578036
0.5
0.425785
0.357357
0.295931
0.242064
0.19578
0.156725
0.124319
0.0980439
0.0788208
0.998974
0.994987
0.985759
0.968574
0.94114
0.902178
0.851731
0.791131
0.722715
0.649394
0.574215
0.5
0.429101
0.363277
0.303675
0.250884
0.205034
0.165938
0.133431
0.109161
0.999344
0.99674
0.990506
0.97843
0.958327
0.928534
0.888294
0.837918
0.778723
0.712792
0.642643
0.570899
0.5
0.432013
0.368524
0.31061
0.25888
0.213581
0.17498
0.145585
0.999577
0.997869
0.993659
0.985217
0.970628
0.948157
0.916608
0.875577
0.825532
0.767741
0.704069
0.636723
0.567987
0.5
0.434597
0.373217
0.316878
0.266249
0.222062
0.187763
0.999726
0.9986
0.995756
0.989877
0.979371
0.962612
0.938233
0.905387
0.86391
0.814358
0.757936
0.696325
0.631476
0.565403
0.5
0.436911
0.377459
0.322672
0.273732
0.235033
0.999821
0.999076
0.997154
0.993071
0.985552
0.973169
0.954559
0.928652
0.894857
0.853178
0.80422
0.749116
0.689389
0.626783
0.563089
0.5
0.439013
0.381426
0.328814
0.286459
0.999882
0.999388
0.998087
0.995257
0.989902
0.980823
0.966763
0.946586
0.919457
0.884981
0.843275
0.794966
0.74112
0.683122
0.622541
0.560987
0.5
0.441038
0.385984
0.340894
0.999922
0.999593
0.998711
0.996752
0.992953
0.986338
0.975806
0.960259
0.938754
0.910644
0.875681
0.834062
0.786419
0.733751
0.677328
0.618574
0.558962
0.5
0.443776
0.396959
0.999948
0.999728
0.999128
0.997769
0.995075
0.990268
0.982416
0.970516
0.953613
0.930925
0.901956
0.866569
0.82502
0.777938
0.726268
0.671186
0.614016
0.556224
0.5
0.452443
0.999964
0.999811
0.999388
0.998415
0.996446
0.992857
0.986861
0.977562
0.964039
0.945459
0.921179
0.890839
0.854415
0.812237
0.764967
0.71354
0.659106
0.603041
0.547558
0.5
)
;

boundaryField
{
    upper
    {
        type            zeroGradient;
    }
    left
    {
        type            fixedValue;
        value           uniform 1;
    }
    right
    {
        type            zeroGradient;
    }
    lower
    {
        type            fixedValue;
        value           uniform 0;
    }
    frontAndBack
    {
        type            empty;
    }
}


// ************************************************************************* //
