/*--------------------------------*- C++ -*----------------------------------*\
| =========                 |                                                 |
| \\      /  F ield         | OpenFOAM: The Open Source CFD Toolbox           |
|  \\    /   O peration     | Version:  3.0.0                                 |
|   \\  /    A nd           | Web:      www.OpenFOAM.org                      |
|    \\/     M anipulation  |                                                 |
\*---------------------------------------------------------------------------*/
FoamFile
{
    version     2.0;
    format      ascii;
    class       volScalarField;
    location    "200";
    object      epsilon;
}
// * * * * * * * * * * * * * * * * * * * * * * * * * * * * * * * * * * * * * //

dimensions      [0 2 -3 0 0 0 0];

internalField   nonuniform List<scalar> 
10000
(
17.8345
4.42055
1.9696
1.18932
0.845931
0.662767
0.552233
0.479632
0.428909
0.391733
0.363419
0.341197
0.323251
0.308438
0.295992
0.285377
0.276201
0.268179
0.261099
0.254797
0.249147
0.244041
0.239403
0.235159
0.231263
0.227659
0.22432
0.221204
0.218294
0.215554
0.212982
0.210547
0.208247
0.206062
0.203988
0.202009
0.200123
0.198317
0.196591
0.194933
0.193344
0.191813
0.190343
0.188923
0.187556
0.186234
0.184958
0.183723
0.182529
0.181369
0.180248
0.179156
0.178101
0.177069
0.176073
0.175095
0.174152
0.173225
0.172328
0.171447
0.170588
0.169753
0.168924
0.168135
0.16731
0.166592
0.165786
0.165138
0.16437
0.163858
0.163687
0.163497
0.165171
0.182941
0.225696
0.260355
0.279859
0.290136
0.295725
0.29931
0.302444
0.305599
0.307764
0.310254
0.312775
0.315047
0.31728
0.318764
0.320529
0.322225
0.323396
0.324575
0.326064
0.327874
0.329925
0.330977
0.331945
0.332979
0.333594
0.333973
8.01846
2.58014
1.09705
0.595408
0.383708
0.277735
0.217788
0.180772
0.156409
0.139594
0.127564
0.118728
0.112063
0.106939
0.102939
0.0997707
0.0972204
0.0951364
0.0934073
0.0919482
0.0906956
0.0895983
0.0886225
0.0877355
0.0869209
0.0861562
0.0854362
0.0847443
0.0840807
0.0834314
0.0828044
0.0821869
0.0815869
0.0809954
0.0804171
0.0798475
0.0792899
0.0787403
0.0782034
0.0776737
0.0771561
0.0766461
0.0761484
0.0756584
0.0751796
0.0747096
0.0742499
0.0737993
0.0733586
0.0729257
0.072504
0.0720886
0.0716847
0.0712865
0.0708999
0.0705182
0.0701473
0.0697821
0.0694254
0.0690768
0.0687326
0.0684013
0.0680664
0.0677554
0.0674257
0.0671346
0.0668143
0.0665172
0.0662073
0.0658578
0.0655651
0.0649755
0.0651795
0.0730783
0.0929041
0.106988
0.112884
0.113975
0.113631
0.112562
0.111737
0.11134
0.110824
0.110673
0.110716
0.110815
0.110901
0.110941
0.111091
0.111299
0.111358
0.111471
0.111732
0.112101
0.112641
0.112831
0.112998
0.113199
0.113272
0.113223
6.80494
2.36309
1.0206
0.534132
0.324283
0.219812
0.161655
0.126385
0.103551
0.0880069
0.0770088
0.0689939
0.0630122
0.0584705
0.0549742
0.0522539
0.0501215
0.0484422
0.0471165
0.0460681
0.0452386
0.04458
0.0440588
0.0436427
0.0433121
0.0430438
0.0428281
0.0426466
0.0424966
0.0423625
0.0422461
0.0421352
0.0420325
0.0419306
0.0418298
0.0417265
0.0416223
0.0415133
0.041403
0.0412869
0.0411686
0.041045
0.0409196
0.0407894
0.0406573
0.0405218
0.0403847
0.0402453
0.0401043
0.0399612
0.0398183
0.0396728
0.0395286
0.0393823
0.0392379
0.0390914
0.0389469
0.0388017
0.0386577
0.0385146
0.0383706
0.0382312
0.0380863
0.0379527
0.0378049
0.0376777
0.0375375
0.0374047
0.0372636
0.0371574
0.037045
0.0366115
0.036793
0.0424963
0.0559841
0.0651506
0.0687035
0.0689169
0.0683169
0.067079
0.0659876
0.0652216
0.0644859
0.0640151
0.0637276
0.0635297
0.0633588
0.0632271
0.0631731
0.0631252
0.0630447
0.0630667
0.0631066
0.0632649
0.0635919
0.0636536
0.0637374
0.0638306
0.0638214
0.0637545
6.56563
2.35746
1.03922
0.542078
0.322468
0.212087
0.150645
0.113562
0.0897008
0.073551
0.0621704
0.0538877
0.0477011
0.0429841
0.0393277
0.0364567
0.0341794
0.0323607
0.030902
0.0297283
0.0287841
0.0280249
0.0274186
0.0269351
0.0265552
0.0262572
0.0260302
0.025857
0.0257323
0.0256418
0.0255837
0.0255463
0.0255286
0.0255249
0.0255293
0.0255409
0.0255574
0.0255749
0.025595
0.0256126
0.0256294
0.0256424
0.0256535
0.0256598
0.0256627
0.0256613
0.0256565
0.0256473
0.0256337
0.0256161
0.0255953
0.0255699
0.0255423
0.0255103
0.0254765
0.0254387
0.0253991
0.0253568
0.0253121
0.0252661
0.025217
0.0251682
0.0251146
0.0250648
0.0250064
0.0249546
0.0248992
0.0248382
0.0247761
0.0247356
0.0246741
0.0243978
0.0246194
0.0291596
0.0392124
0.0461719
0.0490955
0.0493998
0.0490673
0.0481455
0.0472592
0.0465716
0.0459489
0.0454997
0.0452056
0.0449756
0.0448252
0.0446683
0.0445962
0.0445215
0.0444272
0.0444494
0.0444487
0.0445585
0.0448053
0.0448431
0.0449121
0.0449733
0.0449512
0.0449008
6.52812
2.39198
1.07335
0.563339
0.333553
0.216737
0.151362
0.11184
0.0864379
0.0692865
0.0572305
0.0484721
0.0419346
0.0369446
0.0330649
0.0300028
0.0275553
0.0255798
0.023973
0.0226581
0.0215784
0.0206891
0.0199574
0.0193544
0.0188611
0.0184575
0.0181322
0.0178701
0.0176649
0.0175044
0.0173853
0.0172978
0.0172395
0.0172042
0.0171882
0.0171899
0.0172004
0.0172227
0.0172556
0.017292
0.0173332
0.017377
0.0174234
0.0174693
0.0175155
0.0175603
0.0176042
0.0176458
0.0176847
0.0177211
0.017755
0.0177852
0.0178131
0.0178374
0.017859
0.0178772
0.0178925
0.017905
0.0179143
0.0179215
0.0179252
0.0179272
0.017926
0.0179237
0.0179175
0.0179113
0.017903
0.0178864
0.0178723
0.0178671
0.0178256
0.017676
0.0179275
0.0216485
0.0295745
0.0353063
0.0380337
0.0385868
0.0384689
0.0378961
0.0372454
0.0367097
0.0362329
0.0358613
0.0356167
0.0354087
0.0352943
0.0351646
0.0351069
0.0350457
0.0349664
0.0349976
0.0349948
0.0350954
0.035294
0.0353279
0.0353883
0.0354337
0.0354105
0.0353748
6.5363
2.42969
1.10595
0.585454
0.347363
0.224923
0.155867
0.113964
0.0869958
0.0687795
0.0559784
0.0466871
0.0397568
0.034468
0.0303532
0.0270996
0.0244913
0.0223758
0.0206436
0.0192139
0.0180266
0.0170351
0.0162053
0.0155077
0.0149225
0.0144299
0.014018
0.0136727
0.013387
0.0131502
0.012958
0.0128022
0.01268
0.0125854
0.0125155
0.0124671
0.0124365
0.0124205
0.0124214
0.0124293
0.0124476
0.0124753
0.0125094
0.0125472
0.0125897
0.0126352
0.0126832
0.0127321
0.0127816
0.0128314
0.0128809
0.0129293
0.012977
0.013023
0.0130676
0.0131102
0.0131509
0.0131897
0.0132259
0.0132606
0.0132923
0.0133227
0.0133499
0.0133759
0.0133984
0.0134207
0.0134408
0.013452
0.0134691
0.0134883
0.0134598
0.0134092
0.013671
0.0168341
0.0234081
0.0283545
0.0309481
0.0317243
0.0317683
0.0314833
0.0310353
0.0306445
0.0302954
0.0300031
0.0298138
0.0296382
0.029556
0.0294596
0.0294253
0.0293873
0.0293249
0.0293654
0.0293735
0.0294727
0.0296378
0.0296717
0.0297224
0.0297587
0.0297381
0.0297122
6.55041
2.46039
1.13275
0.604792
0.360479
0.233587
0.161482
0.117494
0.0890791
0.0698507
0.0563321
0.0465162
0.0391916
0.0336018
0.0292518
0.02581
0.0230473
0.0208022
0.0189583
0.0174301
0.0161541
0.0150812
0.0141751
0.0134056
0.0127512
0.012192
0.0117152
0.011307
0.0109594
0.0106624
0.0104112
0.0101982
0.0100202
0.00987183
0.00975025
0.00965188
0.00957448
0.00951431
0.0094718
0.00944233
0.00942479
0.00941993
0.00942349
0.00943397
0.0094529
0.00947864
0.00950875
0.00954268
0.00958042
0.0096214
0.00966416
0.00970846
0.00975421
0.00980055
0.00984722
0.00989394
0.00994025
0.00998631
0.010031
0.0100755
0.0101182
0.0101603
0.0102005
0.0102397
0.0102766
0.0103139
0.0103486
0.010373
0.0104122
0.0104441
0.0104319
0.0104242
0.0106934
0.0135528
0.0192426
0.0236244
0.0260849
0.0270204
0.0271952
0.0270955
0.02682
0.0265505
0.0263045
0.0260818
0.0259423
0.025798
0.0257441
0.0256764
0.0256671
0.02565
0.025607
0.0256552
0.0256773
0.0257761
0.0259163
0.0259519
0.0259908
0.0260219
0.0260054
0.0259856
6.561
2.4826
1.15319
0.620453
0.371778
0.241561
0.167057
0.121356
0.0917142
0.0715959
0.0574194
0.0471117
0.0394177
0.0335428
0.0289668
0.0253441
0.022434
0.0200666
0.0181194
0.0165022
0.0151481
0.0140055
0.013036
0.0122082
0.011499
0.0108883
0.0103619
0.00990608
0.00951205
0.00917002
0.00887441
0.0086181
0.00839732
0.008207
0.00804428
0.00790549
0.00778864
0.00769042
0.00761002
0.00754479
0.00749292
0.007454
0.00742601
0.0074075
0.00739733
0.00739742
0.00740175
0.00741254
0.00742964
0.00745189
0.00747732
0.00750634
0.00753871
0.00757361
0.00761032
0.00764892
0.00768869
0.00772973
0.00777103
0.00781329
0.00785521
0.00789764
0.00793951
0.00798109
0.00802171
0.0080636
0.00810256
0.00813449
0.00818047
0.0082131
0.00821745
0.00823109
0.00850614
0.0112589
0.016331
0.0202705
0.0225917
0.0236124
0.0239051
0.0239154
0.0237831
0.0236105
0.023446
0.0232812
0.0231837
0.0230668
0.0230382
0.0229935
0.0230119
0.0230059
0.0229872
0.0230407
0.0230748
0.0231734
0.0232949
0.0233318
0.0233579
0.0233876
0.0233752
0.0233596
6.56728
2.49746
1.16798
0.632518
0.38098
0.248407
0.172104
0.125059
0.0944184
0.0735524
0.0588109
0.048071
0.0400405
0.0339006
0.0291167
0.0253266
0.0222784
0.0197965
0.017753
0.0160537
0.0146285
0.0134235
0.0123983
0.0115203
0.0107651
0.0101118
0.00954538
0.00905177
0.00862144
0.0082446
0.00791504
0.00762577
0.00737257
0.00715045
0.00695635
0.00678664
0.00663918
0.00651104
0.00640076
0.00630634
0.006226
0.00615877
0.0061032
0.00605826
0.00602232
0.00599617
0.00597719
0.00596507
0.0059598
0.00596099
0.00596586
0.00597611
0.00599107
0.00600968
0.00603103
0.0060556
0.00608281
0.00611229
0.00614341
0.00617637
0.00621044
0.0062459
0.00628213
0.00631879
0.00635588
0.00639483
0.00643122
0.00646427
0.00650846
0.00653808
0.00654897
0.00657447
0.00687338
0.00963681
0.014239
0.0178139
0.0199949
0.021052
0.0214435
0.0215301
0.0214956
0.0214039
0.0213032
0.0211863
0.0211231
0.0210292
0.0210244
0.0210108
0.0210416
0.0210545
0.0210494
0.0211076
0.0211504
0.0212485
0.0213562
0.0213925
0.0214061
0.0214379
0.0214296
0.0214168
6.57042
2.50677
1.17818
0.641436
0.38817
0.254019
0.176428
0.128374
0.0969529
0.0754831
0.0602724
0.049165
0.0408438
0.0344718
0.0294996
0.0255552
0.0223815
0.0197954
0.0176632
0.0158882
0.0143977
0.0131359
0.0120605
0.0111378
0.0103421
0.00965204
0.00905155
0.00852632
0.00806611
0.00766103
0.00730432
0.00698901
0.00671045
0.00646366
0.00624536
0.0060519
0.00588092
0.00572971
0.00559643
0.0054793
0.00537656
0.00528706
0.00520942
0.00514279
0.00508567
0.005038
0.00499846
0.0049663
0.00494104
0.00492253
0.00490937
0.00490127
0.00489889
0.00490048
0.00490536
0.00491458
0.00492748
0.00494305
0.00496108
0.00498171
0.0050046
0.00502942
0.00505603
0.00508365
0.00511285
0.00514426
0.00517398
0.00520313
0.00524067
0.00526425
0.00527836
0.00530529
0.0056565
0.00847659
0.0126954
0.0159622
0.0180088
0.0190731
0.0195328
0.0196944
0.0197155
0.0196913
0.0196412
0.019564
0.0195277
0.019465
0.0194831
0.0194914
0.0195273
0.0195626
0.019565
0.0196262
0.0196744
0.0197715
0.0198691
0.0199036
0.0199041
0.0199416
0.0199376
0.0199265
6.57171
2.51222
1.1849
0.647779
0.393588
0.258452
0.179988
0.13121
0.099202
0.0772627
0.0616762
0.0502668
0.0417016
0.0351311
0.029996
0.0259169
0.0226304
0.0199487
0.0177366
0.0158936
0.0143438
0.0130303
0.0119093
0.0109462
0.0101143
0.00939146
0.00876103
0.00820832
0.0077225
0.00729351
0.00691414
0.00657733
0.0062781
0.00601144
0.00577382
0.00556157
0.00537213
0.00520285
0.00505169
0.00491689
0.00479667
0.00468983
0.00459496
0.0045112
0.00443726
0.0043726
0.00431634
0.00426771
0.00422613
0.00419119
0.00416228
0.0041386
0.00412044
0.00410696
0.00409762
0.00409208
0.00409133
0.00409305
0.00409777
0.00410581
0.00411688
0.00412998
0.00414542
0.00416256
0.00418196
0.0042037
0.00422483
0.00424683
0.0042753
0.00429173
0.00430646
0.00432733
0.00475465
0.00763233
0.0115244
0.0145288
0.0164513
0.0175065
0.0180126
0.0182332
0.0183115
0.0183226
0.0183173
0.0182732
0.0182577
0.0182308
0.0182619
0.0182888
0.0183302
0.0183788
0.0183976
0.0184584
0.0185094
0.0186051
0.0186957
0.0187275
0.0187208
0.0187613
0.0187614
0.0187508
6.57204
2.51515
1.1891
0.65211
0.397527
0.261838
0.182821
0.133548
0.10112
0.0788298
0.0629528
0.0513038
0.0425402
0.035805
0.0305324
0.0263379
0.0229538
0.0201892
0.0179058
0.0160008
0.0143978
0.0130382
0.0118762
0.0108766
0.0100121
0.00925995
0.00860282
0.00802576
0.00751742
0.0070676
0.00666868
0.00631351
0.00599684
0.00571357
0.00545995
0.00523232
0.00502789
0.00484405
0.00467861
0.00452977
0.00439573
0.00427521
0.00416679
0.00406955
0.00398231
0.00390431
0.00383482
0.00377303
0.0037184
0.00367032
0.00362848
0.00359203
0.00356099
0.00353475
0.00351308
0.00349523
0.00348185
0.00347179
0.00346503
0.00346122
0.00346129
0.00346305
0.00346752
0.00347445
0.0034839
0.00349554
0.00350756
0.00352123
0.00353968
0.00355025
0.00356094
0.00357511
0.0040873
0.00700281
0.01061
0.0133901
0.0152014
0.0162396
0.0167775
0.0170442
0.0171694
0.0172178
0.0172393
0.0172235
0.0172349
0.0172343
0.0172741
0.0173147
0.0173619
0.0174196
0.0174534
0.0175152
0.0175684
0.0176625
0.0177485
0.0177783
0.0177674
0.0178095
0.0178127
0.0178024
6.57195
2.51654
1.19156
0.654937
0.400288
0.264339
0.185004
0.135417
0.102703
0.0801614
0.0640689
0.0522361
0.0433166
0.036449
0.0310637
0.0267729
0.0233063
0.0204706
0.0181256
0.0161671
0.0145171
0.0131157
0.0119172
0.0108854
0.00999169
0.00921328
0.00853227
0.00793347
0.00740512
0.00693687
0.00652077
0.00614959
0.00581781
0.00552027
0.00525304
0.00501241
0.00479544
0.00459951
0.0044223
0.00426199
0.00411673
0.00398518
0.0038659
0.00375788
0.00366002
0.00357144
0.00349144
0.00341917
0.00335417
0.00329566
0.00324344
0.00319669
0.00315534
0.00311875
0.00308688
0.00305893
0.00303523
0.00301511
0.00299846
0.00298481
0.00297464
0.00296708
0.002962
0.00295946
0.00295979
0.00296185
0.00296526
0.00297069
0.00297969
0.00298451
0.0029882
0.00299928
0.00359079
0.00651606
0.00987344
0.0124625
0.0141763
0.0151947
0.0157551
0.0160584
0.016222
0.0163095
0.0163583
0.0163608
0.0163968
0.0164168
0.016461
0.0165111
0.0165638
0.0166283
0.0166738
0.0167383
0.0167939
0.0168864
0.0169696
0.0169978
0.0169855
0.017028
0.0170332
0.0170234
6.57172
2.51703
1.19287
0.656681
0.402142
0.266123
0.186634
0.136866
0.10397
0.0812588
0.0650133
0.0530455
0.0440077
0.0370371
0.0315621
0.0271935
0.0236589
0.0207639
0.0183668
0.0163624
0.0146719
0.0132346
0.012004
0.0109431
0.0100236
0.00922208
0.00851992
0.00790178
0.00735565
0.00687103
0.00643973
0.0060544
0.00570934
0.00539934
0.00512028
0.00486844
0.00464073
0.00443451
0.00424737
0.00407744
0.00392282
0.00378215
0.00365393
0.00353712
0.00343061
0.00333348
0.003245
0.00316431
0.00309096
0.00302412
0.00296359
0.00290856
0.00285895
0.00281407
0.00277392
0.00273779
0.00270578
0.00267741
0.00265254
0.0026308
0.00261223
0.00259665
0.00258344
0.00257287
0.00256507
0.0025594
0.00255464
0.00255278
0.00255394
0.00255074
0.00254794
0.00255945
0.00321615
0.00612134
0.00926098
0.0116877
0.0133177
0.0143166
0.0148937
0.015227
0.0154229
0.0155411
0.0156161
0.0156425
0.0156918
0.0157292
0.0157791
0.0158374
0.0158953
0.0159653
0.0160203
0.0160878
0.0161461
0.0162369
0.0163189
0.016346
0.0163339
0.0163765
0.0163828
0.0163736
6.57148
2.51704
1.19346
0.657677
0.403324
0.267344
0.18781
0.137955
0.104954
0.0821372
0.0657896
0.053727
0.0446033
0.0375555
0.0320117
0.0275819
0.023993
0.0210497
0.0186097
0.0165671
0.0148424
0.0133744
0.0121162
0.0110306
0.0100885
0.0092663
0.00854542
0.00791035
0.00734858
0.00684948
0.00640472
0.00600689
0.00565012
0.00532915
0.00503972
0.00477807
0.00454102
0.00432589
0.00413021
0.00395205
0.00378947
0.00364108
0.00350535
0.00338119
0.0032675
0.00316329
0.00306785
0.00298027
0.0029001
0.00282649
0.00275923
0.0026975
0.00264121
0.00258966
0.00254283
0.00250007
0.00246137
0.00242633
0.00239475
0.0023664
0.00234103
0.00231882
0.00229886
0.00228165
0.00226709
0.00225488
0.0022431
0.00223504
0.00223027
0.00221959
0.00220887
0.00222275
0.00292677
0.00578281
0.00873507
0.0110247
0.0125837
0.0135654
0.0141559
0.0145145
0.0147381
0.0148821
0.0149805
0.0150302
0.0150905
0.0151422
0.0151987
0.0152644
0.0153273
0.015402
0.0154648
0.0155356
0.0155967
0.0156857
0.0157678
0.0157937
0.0157833
0.0158261
0.0158327
0.0158244
6.57128
2.51683
1.19363
0.658177
0.404028
0.26814
0.188625
0.138745
0.105697
0.0828202
0.0664098
0.0542851
0.0451021
0.0379991
0.0324045
0.0279284
0.0242974
0.021316
0.0188415
0.0167678
0.0150149
0.0135214
0.01224
0.0111333
0.0101719
0.00933214
0.00859507
0.007945
0.00736941
0.00685769
0.00640118
0.00599236
0.00562528
0.00529464
0.00499609
0.00472583
0.00448061
0.00425769
0.00405457
0.00386927
0.00369984
0.00354481
0.00340266
0.00327225
0.00315247
0.00304231
0.00294103
0.0028477
0.00276187
0.00268267
0.00260986
0.00254264
0.00248088
0.00242389
0.00237161
0.00232345
0.00227933
0.00223887
0.00220184
0.00216811
0.00213724
0.00210961
0.00208414
0.00206146
0.00204135
0.0020238
0.00200613
0.00199279
0.00198335
0.0019668
0.00194817
0.00196414
0.00269634
0.00547462
0.00826923
0.0104435
0.0119436
0.0129112
0.0135135
0.0138944
0.0141425
0.0143091
0.0144283
0.0144987
0.0145703
0.0146344
0.0146979
0.0147705
0.0148382
0.0149173
0.0149868
0.0150607
0.0151247
0.0152122
0.0152954
0.0153193
0.0153123
0.0153558
0.0153618
0.0153547
6.57111
2.51651
1.19355
0.658364
0.404404
0.268627
0.189164
0.139297
0.106238
0.0833354
0.0668915
0.0547297
0.0455087
0.0383684
0.0327381
0.0282283
0.024566
0.0215556
0.0190544
0.0169561
0.0151805
0.0136663
0.0123658
0.0112415
0.010264
0.00940931
0.00865846
0.00799565
0.00740822
0.0068854
0.00641853
0.00600017
0.00562415
0.00528505
0.00497852
0.00470071
0.00444832
0.00421859
0.00400897
0.00381745
0.00364204
0.00348125
0.00333356
0.00319776
0.00307276
0.0029575
0.00285125
0.00275305
0.00266244
0.00257854
0.00250109
0.00242929
0.00236298
0.0023015
0.00224473
0.00219212
0.00214355
0.00209865
0.00205718
0.00201901
0.00198369
0.00195161
0.00192166
0.00189449
0.00186984
0.00184796
0.00182545
0.00180757
0.00179451
0.00177331
0.00174763
0.0017645
0.00250347
0.00518512
0.00784487
0.00992254
0.0113744
0.0123317
0.0129454
0.0133466
0.013617
0.0138041
0.0139421
0.0140314
0.0141142
0.0141895
0.0142603
0.0143395
0.014412
0.0144951
0.0145705
0.0146476
0.0147145
0.0148006
0.0148857
0.0149057
0.014905
0.0149497
0.0149543
0.0149489
6.57098
2.51618
1.19335
0.658363
0.404563
0.268895
0.189498
0.139665
0.106617
0.083711
0.0672542
0.0550738
0.0458311
0.0386677
0.033014
0.0284811
0.0247965
0.0217649
0.0192436
0.0171265
0.0153334
0.0138027
0.0124869
0.0113484
0.0103577
0.00949067
0.00872831
0.00805477
0.0074573
0.00692511
0.00644943
0.00602275
0.00563886
0.00529245
0.00497904
0.00469467
0.00443603
0.00420035
0.00398505
0.0037881
0.00360749
0.00344168
0.00328916
0.0031487
0.00301917
0.00289953
0.002789
0.00268663
0.00259193
0.00250403
0.00242263
0.00234696
0.00227683
0.00221156
0.00215105
0.00209472
0.00204245
0.00199387
0.00194872
0.00190689
0.0018679
0.00183215
0.00179856
0.00176766
0.00173929
0.00171389
0.00168747
0.00166565
0.00164979
0.00162493
0.00159321
0.00160945
0.00233344
0.004907
0.00744862
0.00944539
0.0108587
0.0118095
0.0124351
0.0128554
0.0131466
0.0133529
0.0135083
0.013615
0.0137092
0.013795
0.0138732
0.0139588
0.014036
0.0141232
0.0142038
0.014284
0.0143539
0.014439
0.0145263
0.0145469
0.0145486
0.0145957
0.0145983
0.0145949
6.57087
2.51585
1.19311
0.658259
0.404587
0.269016
0.189686
0.139895
0.10687
0.0839743
0.0675181
0.0553321
0.0460796
0.0389037
0.0332361
0.0286886
0.0249892
0.0219429
0.0194073
0.0172764
0.01547
0.0139269
0.0125992
0.0114495
0.0104481
0.00957116
0.0087994
0.00811704
0.00751122
0.00697118
0.00648808
0.00605439
0.00566387
0.00531115
0.00499169
0.00470166
0.00443768
0.00419686
0.00397664
0.00377496
0.00358982
0.00341966
0.00326295
0.00311843
0.00298498
0.00286153
0.00274729
0.00264132
0.0025431
0.00245177
0.00236699
0.00228801
0.00221462
0.00214614
0.00208245
0.00202298
0.0019676
0.00191593
0.00186772
0.00182282
0.00178079
0.00174197
0.00170539
0.00167137
0.00163995
0.00161162
0.00158209
0.00155677
0.00153875
0.00151107
0.00147419
0.00148826
0.00217722
0.0046343
0.00707073
0.00899982
0.010383
0.0113311
0.0119695
0.0124085
0.0127196
0.0129444
0.0131162
0.0132393
0.013345
0.0134409
0.0135265
0.0136185
0.0137006
0.0137917
0.0138773
0.0139607
0.0140336
0.0141181
0.0142075
0.0142309
0.0142341
0.014284
0.0142849
0.0142832
6.57079
2.51555
1.19284
0.658102
0.404533
0.269043
0.189773
0.140025
0.107028
0.0841497
0.0677024
0.0555192
0.0462651
0.0390845
0.0334101
0.0288545
0.0251461
0.0220904
0.0195452
0.0174047
0.0155889
0.0140365
0.0126999
0.0115417
0.0105321
0.00964735
0.00886812
0.00817864
0.00756605
0.00701958
0.00653035
0.00609083
0.00569475
0.00533674
0.00501223
0.00471736
0.00444871
0.00420346
0.00397904
0.00377332
0.00358428
0.00341035
0.00325
0.00310197
0.00296511
0.00283837
0.00272093
0.00261185
0.00251058
0.00241628
0.00232859
0.00224677
0.00217057
0.00209935
0.00203294
0.0019708
0.00191277
0.00185848
0.00180768
0.00176019
0.00171561
0.00167419
0.00163514
0.00159849
0.00156452
0.00153373
0.00150177
0.00147329
0.00145361
0.00142385
0.00138251
0.00139309
0.0020299
0.00436237
0.00670401
0.00857641
0.00993698
0.010886
0.0115383
0.0119961
0.0123266
0.0125695
0.0127573
0.0128961
0.0130134
0.0131192
0.0132124
0.0133107
0.0133979
0.013493
0.0135834
0.01367
0.0137461
0.0138304
0.0139217
0.0139494
0.0139539
0.0140064
0.0140068
0.0140064
6.57071
2.51527
1.19259
0.657925
0.404434
0.269011
0.189794
0.140085
0.107117
0.0842588
0.0678246
0.055649
0.0463985
0.0392186
0.0335425
0.0289835
0.0252705
0.0222095
0.0196584
0.0175117
0.0156896
0.0141308
0.0127879
0.0116234
0.0106077
0.009717
0.00893201
0.00823698
0.00761903
0.00706741
0.00657323
0.00612897
0.00572832
0.00536594
0.00503723
0.00473832
0.00446578
0.0042168
0.00398875
0.00377953
0.00358717
0.00341004
0.00324658
0.00309552
0.00295574
0.00282615
0.00270594
0.00259417
0.00249027
0.00239342
0.00230322
0.00221895
0.00214034
0.00206675
0.00199801
0.00193358
0.00187329
0.00181675
0.00176375
0.00171406
0.00166731
0.00162369
0.00158256
0.0015437
0.00150756
0.0014747
0.00144081
0.00140948
0.00138844
0.00135728
0.00131205
0.00131819
0.00188966
0.00408744
0.0063432
0.00816797
0.00951223
0.0104656
0.0111332
0.0116101
0.01196
0.0122209
0.0124244
0.0125784
0.0127077
0.0128232
0.0129243
0.013029
0.0131215
0.0132208
0.0133157
0.0134058
0.0134852
0.0135699
0.0136628
0.0136959
0.0137018
0.0137565
0.0137578
0.0137583
6.57065
2.51502
1.19234
0.657744
0.404317
0.268947
0.189774
0.140099
0.107158
0.0843194
0.0678997
0.0557342
0.0464903
0.0393141
0.0336397
0.0290806
0.0253663
0.022303
0.019749
0.0175988
0.0157728
0.0142099
0.0128627
0.0116939
0.0106739
0.00977882
0.00898956
0.00829034
0.00766829
0.00711268
0.00661461
0.00616658
0.00576227
0.00539635
0.00506421
0.00476198
0.00448624
0.00423415
0.0040031
0.00379098
0.00359578
0.00341588
0.00324977
0.00309617
0.00295389
0.00282188
0.00269929
0.00258522
0.00247905
0.00238
0.00228764
0.00220126
0.00212057
0.00204496
0.00197421
0.00190781
0.00184557
0.00178712
0.00173222
0.00168065
0.00163205
0.00158655
0.00154365
0.00150293
0.00146492
0.00143031
0.00139489
0.00136107
0.00133868
0.00130688
0.00125823
0.00125935
0.00175738
0.00380569
0.00598456
0.00776895
0.00910222
0.010063
0.0107474
0.0112439
0.0116135
0.0118925
0.0121119
0.0122809
0.0124222
0.0125478
0.012657
0.0127683
0.0128664
0.0129699
0.0130694
0.013163
0.013246
0.0133316
0.0134259
0.0134656
0.0134728
0.0135296
0.0135329
0.0135341
6.57059
2.51479
1.19212
0.657569
0.404192
0.268867
0.189729
0.140084
0.107166
0.0843457
0.0679403
0.0557856
0.0465496
0.039379
0.0337082
0.0291512
0.0254378
0.0223743
0.0198194
0.0176677
0.0158397
0.0142745
0.0129248
0.0117532
0.0107303
0.00983225
0.00903998
0.00833774
0.00771267
0.00715407
0.00665304
0.0062021
0.00579494
0.00542623
0.00509137
0.00478648
0.00450815
0.00425352
0.00402002
0.00380549
0.00360795
0.00342578
0.00325744
0.00310165
0.00295725
0.00282319
0.00269861
0.00258257
0.00247448
0.00237355
0.00227934
0.00219115
0.00210868
0.00203133
0.00195886
0.00189077
0.00182686
0.00176676
0.00171025
0.00165706
0.00160688
0.00155977
0.00151536
0.00147307
0.00143342
0.00139734
0.00136067
0.00132477
0.00130073
0.00126925
0.00121753
0.00121346
0.00163388
0.00351801
0.00562575
0.00737514
0.00870172
0.00967258
0.0103753
0.0108923
0.0112818
0.0115792
0.0118147
0.0119988
0.0121525
0.0122882
0.0124059
0.0125239
0.012628
0.012736
0.0128402
0.0129376
0.0130243
0.0131113
0.0132067
0.0132545
0.013263
0.0133217
0.013328
0.0133297
6.57054
2.51458
1.19191
0.657403
0.404069
0.26878
0.189672
0.140051
0.107153
0.0843489
0.0679565
0.0558123
0.0465845
0.0394201
0.0337539
0.0292003
0.025489
0.0224269
0.0198724
0.0177206
0.0158921
0.0143259
0.0129749
0.0118018
0.0107771
0.00987727
0.00908301
0.00837873
0.00775154
0.00719081
0.00668762
0.00623454
0.00582523
0.00545439
0.00511742
0.00481045
0.00453008
0.00427343
0.00403795
0.00382148
0.00362205
0.00343801
0.00326785
0.00311026
0.00296411
0.00282831
0.00270202
0.00258435
0.00247465
0.00237213
0.00227635
0.00218663
0.00210265
0.00202381
0.00194987
0.00188034
0.001815
0.0017535
0.00169559
0.00164103
0.0015895
0.001541
0.00149529
0.0014517
0.00141061
0.00137326
0.00133559
0.00129799
0.00127205
0.00124166
0.00118727
0.00117815
0.00151993
0.00322809
0.00526556
0.0069834
0.00830657
0.00928978
0.0100122
0.0105504
0.0109605
0.0112768
0.0115288
0.0117281
0.0118946
0.0120408
0.0121674
0.0122924
0.0124028
0.0125155
0.0126244
0.0127259
0.0128166
0.0129055
0.0130021
0.0130598
0.0130689
0.0131294
0.0131395
0.0131415
6.57049
2.51439
1.19172
0.657249
0.403951
0.268692
0.189609
0.140009
0.107127
0.0843373
0.0679563
0.0558215
0.0466014
0.0394433
0.0337821
0.0292323
0.025524
0.0224639
0.0199109
0.01776
0.0159318
0.0143657
0.0130143
0.0118406
0.0108151
0.00991423
0.00911882
0.00841327
0.00778472
0.00722256
0.00671789
0.00626329
0.00585244
0.00548004
0.0051415
0.00483296
0.00455102
0.00429282
0.0040558
0.00383779
0.00363685
0.00345131
0.00327968
0.00312064
0.00297305
0.00283585
0.00270816
0.00258911
0.00247804
0.0023742
0.00227712
0.00218612
0.00210086
0.00202076
0.00194558
0.00187484
0.00180829
0.00174559
0.00168649
0.00163077
0.00157808
0.00152841
0.00148157
0.00143691
0.00139455
0.00135609
0.00131765
0.00127865
0.00125073
0.0012219
0.00116544
0.00115143
0.00141685
0.00293965
0.00490369
0.00659151
0.00791351
0.00891086
0.0096542
0.0102146
0.0106458
0.0109815
0.0112506
0.0114654
0.0116451
0.0118023
0.0119382
0.0120705
0.0121877
0.0123054
0.0124191
0.012525
0.0126199
0.0127113
0.012809
0.0128797
0.0128876
0.0129501
0.0129646
0.0129667
6.57045
2.51421
1.19155
0.657106
0.40384
0.268608
0.189546
0.139962
0.107095
0.0843166
0.0679455
0.055819
0.0466058
0.0394535
0.0337971
0.0292512
0.0255461
0.0224886
0.0199375
0.017788
0.0159609
0.0143954
0.0130443
0.0118707
0.010845
0.00994378
0.00914785
0.00844164
0.00781232
0.00724931
0.0067437
0.0062881
0.0058762
0.00550272
0.00516306
0.00485339
0.0045703
0.00431093
0.00407275
0.00385357
0.00365146
0.00346476
0.00329196
0.00313177
0.00298304
0.0028447
0.00271589
0.00259573
0.00248355
0.00237862
0.00228044
0.00218836
0.00210205
0.00202092
0.0019447
0.00187293
0.00180536
0.00174166
0.00168156
0.00162484
0.00157118
0.00152051
0.00147271
0.00142715
0.00138371
0.00134427
0.00130524
0.00126513
0.00123515
0.00120775
0.00115093
0.00113081
0.00132616
0.00265642
0.00454061
0.00619804
0.00752003
0.00853279
0.00929813
0.00988163
0.0103346
0.0106904
0.010977
0.0112079
0.0114011
0.0115698
0.0117154
0.0118555
0.0119798
0.0121029
0.0122217
0.0123322
0.0124317
0.0125261
0.0126251
0.0127056
0.012717
0.0127814
0.0128008
0.0128027
6.57041
2.51406
1.19138
0.656973
0.403736
0.268527
0.189484
0.139915
0.10706
0.084291
0.0679283
0.0558089
0.0466018
0.0394546
0.0338027
0.0292605
0.0255586
0.0225036
0.0199547
0.0178069
0.0159812
0.0144167
0.0130664
0.0118932
0.0108679
0.00996672
0.00917072
0.00846431
0.00783468
0.00727125
0.00676513
0.00630895
0.00589641
0.00552223
0.00518184
0.00487139
0.00458751
0.00432731
0.00408828
0.00386824
0.00366526
0.00347768
0.003304
0.00314292
0.00299329
0.00285407
0.00272436
0.00260331
0.00249025
0.00238444
0.00228539
0.00219243
0.00210525
0.00202324
0.00194617
0.00187356
0.00180515
0.00174061
0.00167967
0.00162213
0.00156765
0.00151614
0.00146752
0.00142123
0.00137688
0.00133654
0.00129705
0.00125618
0.00122405
0.0011976
0.00114402
0.00111125
0.00124918
0.00238243
0.00417747
0.00580226
0.00712429
0.00815314
0.00894127
0.00954862
0.0100242
0.0104006
0.0107055
0.0109528
0.0111603
0.0113408
0.0114968
0.0116451
0.0117769
0.0119057
0.0120299
0.0121454
0.0122497
0.0123477
0.0124482
0.0125369
0.0125553
0.0126212
0.0126466
0.0126472
6.57037
2.51391
1.19124
0.656851
0.403639
0.268452
0.189425
0.139868
0.107023
0.0842632
0.0679075
0.0557942
0.0465923
0.0394497
0.0338016
0.0292629
0.0255639
0.0225114
0.0199646
0.0178187
0.0159944
0.0144311
0.0130818
0.0119094
0.0108846
0.00998392
0.00918818
0.00848191
0.00785228
0.00728876
0.00678246
0.00632603
0.00591316
0.00553859
0.00519777
0.00488684
0.00460243
0.00434169
0.00410208
0.00388144
0.00367784
0.00348961
0.00331528
0.00315354
0.00300324
0.00286334
0.00273295
0.00261121
0.00249746
0.00239095
0.00229121
0.00219756
0.00210968
0.00202698
0.00194922
0.0018759
0.00180679
0.00174157
0.00167994
0.00162172
0.00156657
0.00151435
0.00146505
0.00141816
0.00137305
0.00133191
0.00129205
0.00125078
0.00121637
0.00119081
0.00113982
0.00109848
0.00118748
0.00212252
0.00381614
0.00540412
0.00672506
0.00777005
0.00858144
0.0092133
0.00971212
0.0101099
0.0104337
0.0106981
0.0109202
0.0111133
0.0112801
0.011437
0.0115768
0.0117119
0.0118417
0.0119625
0.012072
0.012174
0.0122766
0.0123721
0.0124007
0.0124674
0.0125009
0.0124984
6.57034
2.51378
1.1911
0.656738
0.40355
0.268381
0.189368
0.139824
0.106988
0.0842349
0.0678853
0.0557771
0.0465797
0.0394409
0.0337963
0.0292606
0.0255641
0.022514
0.0199692
0.017825
0.0160022
0.0144402
0.0130919
0.0119205
0.0108964
0.0099963
0.00920102
0.00849509
0.00786569
0.00730231
0.00679606
0.00633961
0.00592665
0.00555194
0.00521092
0.00489973
0.00461504
0.00435396
0.004114
0.00389296
0.00368895
0.00350029
0.00332551
0.00316329
0.00301251
0.00287211
0.00274122
0.00261896
0.00250469
0.00239764
0.00229736
0.00220316
0.00211475
0.00203149
0.00195318
0.00187931
0.00180965
0.00174387
0.00168168
0.00162289
0.0015672
0.00151441
0.00146453
0.00141715
0.00137145
0.00132958
0.0012894
0.00124802
0.00121147
0.00118611
0.00113856
0.00109069