/*--------------------------------*- C++ -*----------------------------------*\
| =========                 |                                                 |
| \\      /  F ield         | OpenFOAM: The Open Source CFD Toolbox           |
|  \\    /   O peration     | Version:  3.0.0                                 |
|   \\  /    A nd           | Web:      www.OpenFOAM.org                      |
|    \\/     M anipulation  |                                                 |
\*---------------------------------------------------------------------------*/
FoamFile
{
    version     2.0;
    format      ascii;
    class       volScalarField;
    location    "200";
    object      k;
}
// * * * * * * * * * * * * * * * * * * * * * * * * * * * * * * * * * * * * * //

dimensions      [0 2 -2 0 0 0 0];

internalField   nonuniform List<scalar> 
10000
(
0.125894
0.0496764
0.0289791
0.0207029
0.0164964
0.0140197
0.0124141
0.0113007
0.0104892
0.00987397
0.00939228
0.00900539
0.00868678
0.00841933
0.00819129
0.00799426
0.00782196
0.00766976
0.00753417
0.00741245
0.00730246
0.00720235
0.0071108
0.00702652
0.00694868
0.00687631
0.0068089
0.0067457
0.00668641
0.00663036
0.0065775
0.00652726
0.00647966
0.00643425
0.006391
0.0063496
0.00631002
0.006272
0.00623556
0.00620045
0.00616671
0.00613411
0.00610272
0.00607234
0.00604301
0.00601459
0.00598708
0.0059604
0.00593455
0.00590938
0.00588502
0.00586122
0.00583819
0.00581563
0.0057938
0.00577234
0.00575161
0.00573118
0.0057114
0.00569192
0.00567292
0.0056544
0.005636
0.00561847
0.00560013
0.005584
0.00556606
0.00555151
0.00553415
0.00552093
0.00551401
0.00550992
0.00551669
0.00568366
0.00647575
0.00727181
0.00775492
0.00800099
0.00813405
0.00820801
0.00826759
0.00832701
0.00836751
0.00841403
0.00846133
0.00850573
0.00854435
0.00857305
0.00860467
0.00863872
0.00866187
0.0086826
0.00871103
0.00874059
0.00877942
0.00880232
0.00882063
0.0088397
0.0088508
0.00885855
0.182597
0.080367
0.045664
0.0305771
0.0227209
0.0180864
0.0151013
0.0130552
0.0115889
0.0105024
0.00967739
0.00903944
0.00853594
0.00813459
0.0078119
0.00755026
0.0073362
0.00715991
0.00701381
0.00689182
0.00678916
0.00670187
0.00662721
0.00656241
0.00650596
0.00645579
0.00641126
0.00637072
0.00633393
0.00629956
0.00626809
0.00623817
0.00621039
0.00618369
0.00615843
0.00613405
0.00611072
0.00608802
0.00606624
0.00604486
0.00602423
0.00600392
0.00598431
0.00596494
0.00594613
0.00592762
0.00590955
0.0058918
0.00587441
0.00585726
0.00584057
0.00582397
0.00580789
0.00579187
0.00577637
0.00576085
0.00574587
0.00573091
0.00571636
0.00570199
0.00568775
0.00567404
0.00565994
0.00564709
0.00563261
0.00562106
0.00560683
0.00559509
0.00558002
0.00556983
0.00555334
0.00552611
0.00557458
0.00646134
0.00848451
0.00979686
0.0103218
0.0103941
0.0103546
0.0102577
0.0101981
0.0101669
0.0101162
0.0101145
0.0101227
0.0101352
0.0101338
0.0101306
0.0101472
0.0101733
0.0101713
0.0101818
0.010218
0.0102561
0.0103143
0.0103296
0.0103438
0.0103638
0.0103652
0.010354
0.206285
0.0982791
0.057006
0.037967
0.0277763
0.0216838
0.0177277
0.0149956
0.0130202
0.0115407
0.0104022
0.00950666
0.00879192
0.00821474
0.00774265
0.00735286
0.00702936
0.00675998
0.00653503
0.00634662
0.0061885
0.00605551
0.00594383
0.0058496
0.00577045
0.00570341
0.00564719
0.00559924
0.00555921
0.00552476
0.00549599
0.00547084
0.00544979
0.00543113
0.00541519
0.00540099
0.00538856
0.00537727
0.00536729
0.00535786
0.00534938
0.0053412
0.00533372
0.00532631
0.0053194
0.00531254
0.00530595
0.00529943
0.00529297
0.00528656
0.00528029
0.00527385
0.00526765
0.00526124
0.00525507
0.0052486
0.00524238
0.00523597
0.00522967
0.00522328
0.0052168
0.00521056
0.00520381
0.00519786
0.00519033
0.00518511
0.00517799
0.00517218
0.00516406
0.00516467
0.00515825
0.00513213
0.00518351
0.00640266
0.00900848
0.0106406
0.0113248
0.0114672
0.0114507
0.0113729
0.0113292
0.0113022
0.0112625
0.0112718
0.011287
0.0113043
0.011316
0.0113143
0.0113408
0.0113743
0.0113791
0.0113993
0.0114504
0.0114984
0.0115791
0.0116015
0.0116221
0.0116505
0.0116527
0.0116403
0.218873
0.109943
0.0652572
0.0437229
0.0319119
0.0247565
0.0200763
0.0168295
0.0144726
0.0126999
0.0113288
0.0102438
0.00936994
0.00865542
0.00806488
0.00757238
0.00715817
0.00680809
0.00651051
0.00625617
0.00603864
0.00585227
0.00569274
0.00555574
0.00543863
0.00533809
0.00525255
0.00517917
0.00511725
0.00506426
0.00502004
0.00498225
0.00495117
0.00492469
0.00490314
0.00488512
0.00487052
0.00485854
0.0048491
0.00484129
0.00483541
0.00483062
0.00482724
0.00482444
0.0048227
0.00482131
0.00482061
0.00482012
0.00481989
0.00481994
0.00482008
0.00482023
0.00482058
0.00482078
0.00482111
0.0048212
0.0048214
0.00482139
0.00482134
0.0048212
0.00482085
0.00482056
0.00481985
0.00481941
0.00481809
0.00481766
0.00481666
0.00481512
0.00481368
0.00481829
0.00481419
0.00479586
0.00486408
0.00644911
0.00938492
0.0111885
0.01199
0.0122277
0.0122529
0.0122272
0.0122224
0.0122157
0.0122112
0.0122359
0.0122658
0.0122937
0.0123318
0.0123344
0.0123711
0.0124219
0.0124305
0.0124608
0.0125233
0.0125808
0.0126765
0.0127085
0.0127339
0.0127694
0.0127729
0.0127621
0.226011
0.117858
0.0714245
0.0483002
0.0353425
0.0273852
0.0221371
0.0184776
0.0158116
0.0138005
0.0122406
0.0110024
0.0100014
0.00917937
0.0084958
0.00792158
0.00743484
0.00701898
0.00666182
0.00635371
0.00608694
0.00585524
0.00565329
0.00547688
0.00532324
0.0051889
0.00507207
0.00496991
0.00488153
0.0048044
0.00473821
0.00468064
0.00463179
0.00458957
0.00455415
0.00452393
0.00449896
0.00447817
0.00446131
0.00444746
0.00443683
0.00442843
0.00442244
0.00441801
0.00441549
0.00441405
0.00441413
0.00441476
0.00441629
0.00441866
0.00442139
0.00442455
0.00442825
0.00443201
0.00443606
0.00444015
0.00444443
0.00444868
0.00445287
0.00445719
0.0044612
0.00446549
0.00446919
0.00447331
0.00447649
0.00448069
0.00448396
0.00448642
0.00448986
0.00449826
0.00449493
0.00448723
0.00458946
0.00658889
0.00971417
0.0116105
0.0124964
0.0128194
0.0129129
0.0129392
0.0129693
0.0130031
0.013027
0.0130673
0.0131109
0.0131513
0.0132054
0.0132267
0.0132707
0.0133319
0.0133495
0.01339
0.0134619
0.0135281
0.0136347
0.0136736
0.0137041
0.0137464
0.0137509
0.0137417
0.230064
0.123241
0.0760294
0.0519315
0.0381803
0.0296269
0.0239364
0.0199445
0.0170241
0.0148143
0.0130957
0.0117285
0.0106204
0.0097081
0.00894701
0.00830514
0.00775871
0.00728964
0.00688429
0.00653213
0.00622463
0.0059549
0.00571799
0.00550903
0.00532483
0.00516141
0.00501706
0.00488896
0.004776
0.00467572
0.00458767
0.00450964
0.00444153
0.00438146
0.00432938
0.00428383
0.00424467
0.00421099
0.00418235
0.00415797
0.00413791
0.00412113
0.00410774
0.00409694
0.00408896
0.00408291
0.0040791
0.00407675
0.00407615
0.0040767
0.00407817
0.00408089
0.00408453
0.00408864
0.00409342
0.00409873
0.00410447
0.00411048
0.00411666
0.00412327
0.0041297
0.00413663
0.0041431
0.0041501
0.00415637
0.00416377
0.00417002
0.00417504
0.00418303
0.00419384
0.0041919
0.00419164
0.00435867
0.00680751
0.0100312
0.0119718
0.0129183
0.0133133
0.0134721
0.013552
0.0136202
0.0136888
0.0137405
0.0137995
0.0138579
0.0139114
0.0139777
0.0140155
0.014069
0.0141376
0.0141674
0.0142181
0.014298
0.0143725
0.0144873
0.0145322
0.0145672
0.014616
0.0146206
0.0146131
0.232309
0.126851
0.0794239
0.0547775
0.0405021
0.0315199
0.0254926
0.0212379
0.0181108
0.015736
0.0138839
0.012407
0.0112073
0.0102175
0.00938995
0.00869025
0.00809292
0.00757863
0.00713262
0.00674347
0.00640215
0.0061012
0.00583515
0.00559881
0.00538863
0.00520102
0.00503378
0.0048839
0.00474993
0.00462963
0.00452231
0.00442593
0.00434016
0.00426331
0.00419514
0.00413437
0.00408067
0.00403324
0.00399168
0.00395514
0.00392369
0.00389633
0.00387312
0.00385332
0.00383704
0.00382346
0.00381275
0.00380434
0.00379821
0.00379405
0.00379139
0.00379059
0.0037911
0.00379259
0.00379537
0.00379923
0.00380378
0.00380902
0.00381487
0.00382146
0.00382818
0.00383566
0.00384301
0.00385103
0.0038587
0.0038676
0.00387526
0.00388201
0.00389258
0.00390371
0.00390349
0.00390958
0.00418565
0.00709336
0.0103483
0.0123016
0.0132911
0.0137464
0.0139651
0.014096
0.0142021
0.0143019
0.0143797
0.0144576
0.0145308
0.014597
0.014674
0.0147255
0.0147895
0.0148647
0.014906
0.0149677
0.0150558
0.0151381
0.0152592
0.0153101
0.0153492
0.0154043
0.0154079
0.0154023
0.233504
0.129218
0.0818787
0.0569702
0.0423724
0.0330961
0.0268219
0.0223652
0.0190737
0.0165646
0.0146015
0.013032
0.0117543
0.010698
0.00981306
0.00906333
0.00842191
0.00786847
0.00738734
0.00696637
0.00659603
0.00626841
0.0059776
0.00571822
0.00548638
0.00527833
0.00509153
0.00492304
0.00477146
0.00463437
0.00451075
0.00439867
0.00429767
0.00420617
0.00412378
0.00404933
0.00398239
0.00392216
0.00386831
0.00381996
0.00377713
0.00373895
0.00370539
0.00367577
0.00365017
0.00362782
0.00360881
0.00359272
0.00357934
0.00356849
0.00355975
0.00355319
0.00354858
0.00354552
0.00354404
0.00354424
0.00354532
0.00354764
0.00355112
0.00355559
0.00356057
0.00356658
0.00357295
0.00358014
0.00358742
0.00359602
0.00360354
0.00361092
0.00362191
0.00363092
0.00363292
0.00364403
0.00408803
0.0074314
0.0106654
0.0126117
0.0136318
0.0141383
0.0144107
0.014589
0.0147312
0.0148596
0.0149616
0.0150577
0.0151455
0.0152239
0.015311
0.0153743
0.0154493
0.0155306
0.0155822
0.0156552
0.0157518
0.0158415
0.0159677
0.0160248
0.0160676
0.0161292
0.0161311
0.0161275
0.234105
0.130725
0.0836123
0.0586251
0.0438519
0.0343872
0.0279405
0.0233345
0.0199164
0.0173005
0.0152472
0.013601
0.0122577
0.0111448
0.0102106
0.00941768
0.00873803
0.00815052
0.00763879
0.00719011
0.0067945
0.00644372
0.00613147
0.00585218
0.00560172
0.00537614
0.00517277
0.00498856
0.00482187
0.00467026
0.00453274
0.00440742
0.00429354
0.00418953
0.00409496
0.00400868
0.00393023
0.00385876
0.00379398
0.00373504
0.00368182
0.00363363
0.00359031
0.00355127
0.00351653
0.00348543
0.00345794
0.00343375
0.00341261
0.00339432
0.00337862
0.00336538
0.00335446
0.00334555
0.00333853
0.00333347
0.00332994
0.00332779
0.00332734
0.00332796
0.00332956
0.00333254
0.00333635
0.00334105
0.00334637
0.00335301
0.00335902
0.00336556
0.00337518
0.00338177
0.00338476
0.00339834
0.00407657
0.00778953
0.0109759
0.0129052
0.0139482
0.0144993
0.0148199
0.0150414
0.0152179
0.0153727
0.0154972
0.0156108
0.0157129
0.015803
0.0158998
0.0159742
0.0160598
0.0161472
0.0162083
0.0162923
0.0163976
0.0164946
0.0166249
0.0166884
0.0167348
0.0168026
0.0168032
0.0168012
0.234384
0.131651
0.0848032
0.0598454
0.0449985
0.0354255
0.0288663
0.0241554
0.0206437
0.0179457
0.015821
0.0141128
0.0127154
0.0115551
0.0105793
0.00974944
0.00903689
0.00841986
0.00788152
0.00740867
0.00699098
0.00661994
0.00628895
0.00599228
0.00572557
0.00548476
0.005267
0.00506919
0.00488952
0.00472554
0.00457611
0.00443927
0.00431424
0.00419958
0.00409466
0.00399824
0.00390991
0.0038288
0.00375454
0.00368639
0.00362408
0.00356705
0.00351503
0.00346752
0.00342442
0.00338525
0.00334983
0.00331791
0.00328928
0.00326368
0.00324096
0.00322091
0.00320339
0.00318819
0.00317516
0.00316423
0.00315525
0.0031479
0.00314235
0.00313838
0.00313568
0.00313444
0.00313456
0.00313549
0.00313763
0.00314107
0.0031445
0.0031488
0.00315582
0.00315945
0.00316211
0.00317595
0.00415438
0.00811853
0.0112711
0.0131814
0.0142435
0.0148343
0.0151989
0.01546
0.0156686
0.0158482
0.015994
0.0161242
0.0162401
0.0163416
0.0164482
0.0165333
0.0166291
0.0167229
0.0167931
0.0168877
0.0170016
0.0171055
0.0172393
0.0173093
0.0173594
0.0174323
0.0174334
0.0174327
0.234498
0.132197
0.0855958
0.0607217
0.0458671
0.036244
0.0296188
0.0248392
0.0212618
0.0185034
0.0163243
0.0145674
0.0131266
0.0119275
0.0109171
0.0100562
0.00931571
0.00867341
0.00811211
0.00761831
0.00718139
0.00679265
0.00644527
0.00613336
0.00585241
0.00559825
0.0053679
0.0051582
0.0049672
0.00479246
0.00463268
0.00448594
0.00435133
0.00422738
0.00411339
0.00400829
0.00391152
0.00382212
0.00373971
0.00366362
0.00359346
0.00352876
0.00346916
0.00341424
0.00336379
0.00331744
0.00327494
0.00323604
0.00320058
0.00316827
0.00313897
0.00311248
0.00308866
0.00306732
0.00304834
0.00303157
0.00301693
0.0030042
0.0029933
0.00298428
0.00297676
0.00297086
0.00296631
0.00296318
0.00296144
0.00296077
0.00296088
0.00296172
0.00296562
0.0029657
0.00296617
0.00297987
0.00428744
0.00842248
0.0115451
0.013438
0.014518
0.0151457
0.0155511
0.0158489
0.0160876
0.0162908
0.0164566
0.0166028
0.0167324
0.0168453
0.0169617
0.0170574
0.0171629
0.0172633
0.0173426
0.0174472
0.0175695
0.0176801
0.0178171
0.0178937
0.0179476
0.0180249
0.0180283
0.0180283
0.234533
0.132502
0.0861043
0.0613327
0.0465088
0.036875
0.0302185
0.0253988
0.0217786
0.0189783
0.0167595
0.0149658
0.0134912
0.0122614
0.0112229
0.0103365
0.00957269
0.0089091
0.00832827
0.00781651
0.00736301
0.00695893
0.00659727
0.00627205
0.00597863
0.00571277
0.00547136
0.00525123
0.00505028
0.00486611
0.00469726
0.00454187
0.00439889
0.0042669
0.0041451
0.00403241
0.00392819
0.00383162
0.00374221
0.00365926
0.00358233
0.00351099
0.00344483
0.0033835
0.00332666
0.00327404
0.00322535
0.00318033
0.00313881
0.00310052
0.00306533
0.00303302
0.00300346
0.00297647
0.00295194
0.00292969
0.00290967
0.00289173
0.00287563
0.00286159
0.00284917
0.00283857
0.00282923
0.00282169
0.00281576
0.00281071
0.00280642
0.00280412
0.00280392
0.00279925
0.0027973
0.00281281
0.0044493
0.00869899
0.0117923
0.0136723
0.014771
0.0154341
0.0158781
0.0162105
0.0164778
0.0167036
0.0168886
0.0170504
0.0171935
0.0173181
0.0174443
0.0175505
0.0176654
0.0177727
0.017861
0.0179751
0.0181056
0.0182229
0.0183629
0.018446
0.0185042
0.0185855
0.0185927
0.0185929
0.234535
0.132661
0.0864165
0.0617447
0.0469698
0.03735
0.0306864
0.0258479
0.0222033
0.0193762
0.0171301
0.0153101
0.0138103
0.0125569
0.0114963
0.0105895
0.00980674
0.00912557
0.00852843
0.00800154
0.00753393
0.0071167
0.00674274
0.00640599
0.00610173
0.00582565
0.00557456
0.00534528
0.00513561
0.00494314
0.00476633
0.00460333
0.00445302
0.00431396
0.00418533
0.00406602
0.00395535
0.00385251
0.0037569
0.00366797
0.00358519
0.00350812
0.00343627
0.00336935
0.00330699
0.00324892
0.00319484
0.00314449
0.00309769
0.00305417
0.0030138
0.00297634
0.00294169
0.00290965
0.00288013
0.00285293
0.00282801
0.00280526
0.00278437
0.00276561
0.00274855
0.00273345
0.0027195
0.0027076
0.00269752
0.00268813
0.00267934
0.00267373
0.00266988
0.00265884
0.00265396
0.00267488
0.00461913
0.00894167
0.0120083
0.0138813
0.0150012
0.0156992
0.0161804
0.016546
0.0168408
0.0170885
0.0172922
0.0174695
0.0176261
0.0177626
0.0178987
0.0180154
0.0181395
0.0182539
0.0183515
0.0184748
0.0186132
0.018737
0.0188799
0.0189696
0.0190326
0.0191176
0.0191301
0.0191301
0.234526
0.132735
0.0865979
0.0620117
0.0472907
0.037698
0.0310429
0.0262009
0.0225456
0.0197037
0.0174408
0.0156031
0.0140856
0.0128149
0.0117377
0.010815
0.0100173
0.00932202
0.00871158
0.00817218
0.0076928
0.0072645
0.00688008
0.00653347
0.00621987
0.00593496
0.00567546
0.00543821
0.00522091
0.00502117
0.00483738
0.00466769
0.00451093
0.00436567
0.00423102
0.00410589
0.00398956
0.00388123
0.00378025
0.00368608
0.00359811
0.00351599
0.00343921
0.00336746
0.00330028
0.00323747
0.0031787
0.00312371
0.00307231
0.00302423
0.00297933
0.00293737
0.00289827
0.00286178
0.00282787
0.00279628
0.00276701
0.00273994
0.00271476
0.00269172
0.00267043
0.00265119
0.00263301
0.00261701
0.00260301
0.00258952
0.0025764
0.00256761
0.00256024
0.00254336
0.00253351
0.00256432
0.00477919
0.00914385
0.0121888
0.0140623
0.0152066
0.0159402
0.0164578
0.0168558
0.0171775
0.0174469
0.0176692
0.0178619
0.0180322
0.0181808
0.0183271
0.0184543
0.0185875
0.0187093
0.0188162
0.0189484
0.0190945
0.0192248
0.0193709
0.0194672
0.0195353
0.0196242
0.0196428
0.0196427
0.234514
0.132762
0.0866956
0.0621767
0.047506
0.0379455
0.0313076
0.0264721
0.0228159
0.0199683
0.0176967
0.0158484
0.0143195
0.0130369
0.0119479
0.0110135
0.0102044
0.00949812
0.00887715
0.00832769
0.00783871
0.00740126
0.00700813
0.00665323
0.00633171
0.00603926
0.00577255
0.00552841
0.0053045
0.00509843
0.00490855
0.00473301
0.0045706
0.00441989
0.00427995
0.00414972
0.00402841
0.00391524
0.00380954
0.00371077
0.00361829
0.00353175
0.00345059
0.00337455
0.00330319
0.00323625
0.00317338
0.00311434
0.00305893
0.00300686
0.00295802
0.00291214
0.00286914
0.00282877
0.002791
0.00275556
0.00272246
0.00269158
0.00266262
0.00263577
0.00261072
0.00258775
0.00256579
0.00254605
0.00252848
0.00251128
0.00249413
0.00248235
0.00247179
0.00244956
0.0024351
0.00247776
0.00491444
0.00929973
0.0123303
0.0142125
0.0153855
0.0161558
0.0167099
0.0171398
0.0174883
0.0177795
0.0180204
0.0182288
0.0184129
0.018574
0.0187307
0.0188685
0.0190109
0.0191405
0.0192569
0.0193976
0.0195513
0.0196882
0.0198375
0.0199406
0.0200143
0.0201071
0.0201324
0.0201326
0.234505
0.132765
0.086742
0.0622725
0.0476444
0.0381154
0.0314985
0.0266753
0.0230246
0.0201777
0.0179035
0.0160504
0.0145151
0.0132252
0.0121283
0.0111857
0.0103684
0.00965397
0.00902497
0.00846768
0.0079711
0.0075263
0.00712607
0.00676434
0.00643624
0.00613747
0.00586466
0.00561466
0.00538508
0.00517358
0.00497843
0.00479781
0.00463047
0.00447501
0.00433045
0.00419573
0.00407005
0.00395264
0.00384279
0.00373997
0.00364352
0.00355309
0.00346812
0.00338832
0.00331325
0.00324264
0.0031762
0.00311362
0.00305469
0.00299915
0.00294685
0.00289754
0.00285113
0.00280736
0.00276623
0.00272741
0.00269097
0.00265672
0.00262445
0.00259425
0.00256589
0.0025396
0.00251432
0.00249124
0.00247046
0.00244997
0.00242917
0.00241464
0.00240133
0.00237422
0.00235562
0.00241035
0.00501275
0.00940462
0.01243
0.0143294
0.0155357
0.0163448
0.0169358
0.0173978
0.0177732
0.0180864
0.0183464
0.0185709
0.0187691
0.018943
0.0191105
0.0192592
0.0194108
0.0195486
0.0196745
0.0198238
0.019985
0.0201286
0.0202815
0.0203913
0.0204711
0.0205678
0.0206004
0.0206014
0.234498
0.132758
0.0867586
0.0623231
0.0477285
0.0382275
0.0316317
0.0268232
0.0231817
0.0203398
0.0180673
0.0162135
0.0146758
0.0133822
0.0122807
0.011333
0.0105102
0.00979004
0.00915523
0.00859211
0.00808974
0.00763923
0.00723339
0.00686619
0.00653274
0.00622878
0.00595091
0.00569601
0.00546167
0.00524556
0.00504591
0.00486094
0.00468936
0.00452978
0.00438121
0.00424259
0.00411309
0.00399196
0.00387847
0.00377209
0.00367216
0.00357832
0.00348998
0.00340689
0.00332856
0.00325475
0.00318513
0.00311941
0.0030574
0.00299882
0.00294349
0.00289116
0.00284177
0.00279502
0.00275093
0.00270916
0.00266979
0.0026326
0.00259743
0.00256427
0.00253303
0.00250381
0.00247562
0.00244957
0.00242597
0.00240259
0.00237854
0.00236147
0.00234586
0.00231436
0.00229205
0.00235683
0.00506481
0.00945455
0.0124849
0.0144106
0.0156553
0.0165054
0.0171343
0.017629
0.0180318
0.0183676
0.0186472
0.0188885
0.0191013
0.0192883
0.0194672
0.019627
0.019788
0.0199344
0.0200701
0.0202278
0.0203964
0.0205469
0.0207037
0.0208204
0.0209068
0.0210076
0.0210483
0.0210504
0.234493
0.132746
0.0867589
0.0623456
0.0477757
0.0382977
0.0317211
0.0269274
0.0232968
0.0204623
0.0181942
0.0163426
0.0148053
0.0135108
0.0124074
0.011457
0.010631
0.00990718
0.00926846
0.00870126
0.00819469
0.00773994
0.00732984
0.0069584
0.00662074
0.00631264
0.00603068
0.00577178
0.0055335
0.00531355
0.00511013
0.00492149
0.0047463
0.00458321
0.00443119
0.0042892
0.00415641
0.00403205
0.0039154
0.00380591
0.00370293
0.00360609
0.00351481
0.00342882
0.00334764
0.00327101
0.0031986
0.00313014
0.00306539
0.00300409
0.00294611
0.00289115
0.00283913
0.00278977
0.00274308
0.00269872
0.00265678
0.00261701
0.00257929
0.00254354
0.00250975
0.00247797
0.00244723
0.00241855
0.00239247
0.00236658
0.00233965
0.00232024
0.0023028
0.00226743
0.00224172
0.00231262
0.0050647
0.00944692
0.0124925
0.0144536
0.015742
0.0166361
0.0173044
0.0178327
0.0182636
0.0186229
0.0189228
0.0191814
0.0194094
0.0196102
0.0198008
0.0199722
0.020143
0.0202984
0.020444
0.0206102
0.0207862
0.0209437
0.021105
0.0212286
0.0213221
0.021427
0.0214769
0.0214803
0.234489
0.132734
0.0867513
0.0623514
0.0477988
0.0383386
0.0317781
0.0269981
0.0233784
0.0205522
0.0182901
0.0164425
0.0149076
0.0136142
0.0125108
0.0115597
0.0107322
0.0100065
0.00936547
0.00879567
0.00828629
0.00782858
0.00741541
0.00704083
0.00669999
0.00638869
0.00610353
0.00584146
0.00560001
0.00537694
0.00517042
0.00497874
0.00480054
0.0046345
0.00447956
0.00433471
0.0041991
0.00407197
0.00395259
0.00384041
0.00373479
0.00363534
0.0035415
0.00345297
0.00336929
0.00329019
0.00321534
0.00314447
0.00307733
0.00301367
0.00295332
0.00289601
0.00284168
0.00279004
0.00274107
0.00269443
0.00265021
0.00260817
0.00256822
0.00253019
0.00249418
0.00246012
0.00242718
0.00239616
0.00236791
0.00233982
0.00231039
0.00228874
0.00226995
0.00223122
0.00220229
0.0022743
0.00500973
0.00938031
0.0124507
0.014456
0.0157939
0.016735
0.0174446
0.0180078
0.0184679
0.0188516
0.0191727
0.0194496
0.0196935
0.0199086
0.0201116
0.020295
0.0204759
0.0206408
0.0207966
0.0209713
0.0211548
0.0213197
0.0214858
0.0216166
0.0217176
0.0218268
0.0218874
0.0218918
0.234486
0.132722
0.0867401
0.062348
0.047807
0.0383597
0.0318121
0.0270437
0.0234341
0.0206161
0.0183606
0.0165179
0.0149866
0.0136956
0.0125937
0.0116432
0.0108156
0.0100894
0.00944731
0.00887614
0.00836511
0.00790552
0.00749031
0.00711356
0.00677045
0.0064568
0.00616924
0.00590473
0.00566082
0.00543528
0.00522629
0.00503216
0.0048515
0.00468303
0.00452567
0.00437843
0.00424045
0.00411097
0.00398927
0.00387479
0.00376691
0.00366521
0.00356915
0.00347842
0.00339257
0.00331132
0.00323434
0.00316135
0.00309212
0.00302638
0.00296397
0.00290462
0.00284824
0.00279455
0.00274357
0.00269494
0.00264874
0.0026047
0.00256277
0.00252274
0.00248476
0.00244872
0.00241383
0.00238074
0.00235057
0.00232059
0.002289
0.00226515
0.00224551
0.00220391
0.00217183
0.00223978
0.00489998
0.00925377
0.0123579
0.0144156
0.0158087
0.0168004
0.0175534
0.0181532
0.0186439
0.0190532
0.0193965
0.0196926
0.0199532
0.0201834
0.0203995
0.0205953
0.0207867
0.0209618
0.0211281
0.0213113
0.0215025
0.021675
0.0218466
0.0219847
0.0220936
0.0222072
0.0222807
0.0222853
0.234484
0.132711
0.086728
0.06234
0.0478064
0.0383683
0.0318303
0.0270713
0.0234703
0.0206599
0.0184107
0.0165733
0.0150461
0.0137583
0.0126587
0.0117098
0.0108832
0.0101573
0.00951522
0.00894365
0.00843191
0.00797136
0.00755496
0.00717686
0.00683225
0.006517
0.00622773
0.00596145
0.00571571
0.0054883
0.0052774
0.00508134
0.00489874
0.00472832
0.004569
0.0044198
0.00427986
0.00414844
0.0040248
0.00390839
0.00379858
0.00369497
0.00359702
0.0035044
0.00341669
0.00333357
0.00325475
0.00317993
0.00310887
0.00304132
0.00297711
0.00291597
0.00285781
0.00280235
0.00274959
0.00269919
0.00265122
0.00260545
0.00256179
0.00251999
0.00248028
0.00244248
0.0024059
0.00237097
0.0023391
0.00230749
0.00227405
0.002248
0.00222786
0.002184
0.00214876
0.00220822
0.00473793
0.00906714
0.0122124
0.0143304
0.0157841
0.0168303
0.0176294
0.0182676
0.0187904
0.0192268
0.0195935
0.0199099
0.0201881
0.0204341
0.0206641
0.0208729
0.0210755
0.0212612
0.0214382
0.0216303
0.0218294
0.0220099
0.0221873
0.022333
0.0224503
0.0225686
0.022658
0.0226609
0.234483
0.132702
0.0867161
0.0623301
0.047801
0.038369
0.0318381
0.0270864
0.0234923
0.0206884
0.018445
0.0166126
0.0150896
0.0138053
0.0127085
0.0117617
0.0109367
0.010212
0.00957058
0.00899934
0.00848761
0.00802681
0.00760993
0.00723116
0.0068857
0.00656947
0.0062791
0.00601163
0.00576461
0.00553586
0.00532355
0.00512605
0.00494195
0.00477002
0.00460916
0.00445841
0.00431689
0.00418388
0.00405866
0.00394065
0.00382926
0.00372405
0.0036245
0.00353029
0.00344099
0.00335629
0.00327588
0.00319948
0.00312686
0.00305775
0.00299196
0.00292928
0.00286955
0.00281256
0.00275824
0.00270631
0.00265679
0.00260946
0.00256427
0.00252095
0.00247971
0.00244038
0.00240231
0.00236575
0.00233236
0.00229936
0.00226433
0.00223618
0.00221551
0.00217036
0.00213181
0.00217979
0.00452839
0.00882097
0.0120126
0.0141982
0.0157182
0.0168228
0.0176708
0.0183496
0.0189064
0.0193714
0.0197629
0.0201007
0.0203977
0.0206605
0.020905
0.0211275
0.0213418
0.0215388
0.0217269
0.0219282
0.0221354
0.0223242
0.0225081
0.0226616
0.0227878
0.022911
0.0230144
0.023019
0.234481
0.132693
0.0867049
0.0623196
0.0477933
0.0383654
0.0318393
0.027093
0.0235044
0.0207057
0.0184673
0.0166394
0.0151204
0.0138395
0.0127456
0.0118012
0.0109782
0.010255
0.00961485
0.00904445
0.00853327
0.00807276
0.00765593
0.00727702
0.00693125
0.00661456
0.00632359
0.00605541
0.00580758
0.00557795
0.00536467
0.00516615
0.00498096
0.00480791
0.00464588
0.00449394
0.0043512
0.00421694
0.00409045
0.00397116
0.00385847
0.00375196
0.0036511
0.00355556
0.00346493
0.0033789
0.00329716
0.00321943
0.00314546
0.00307501
0.00300788
0.00294387
0.00288279
0.00282447
0.0027688
0.00271554
0.00266467
0.00261601
0.00256948
0.0025248
0.00248219
0.00244153
0.00240217
0.00236419
0.00232941
0.00229525
0.00225885
0.00222875
0.00220719
0.00216214
0.00211991
0.00215516
0.00427832
0.00851653
0.0117574
0.014017
0.0156087
0.0167758
0.0176759
0.0183978
0.0189906
0.0194861
0.0199038
0.0202644
0.0205812
0.0208617
0.0211217
0.0213587
0.0215854
0.0217943
0.0219939
0.0222047
0.0224204
0.0226178
0.0228088
0.0229705
0.0231059
0.0232345
0.0233511
0.0233593
0.23448
0.132685
0.0866946
0.0623094
0.0477847
0.0383594
0.0318367
0.0270941
0.0235096
0.0207151
0.0184808
0.0166567
0.0151412
0.0138635
0.0127724
0.0118306
0.0110097
0.0102882
0.00964949
0.00908026
0.00856999
0.00811014
0.00769378
0.00731513
0.00696945
0.00665271
0.00636154
0.00609307
0.00584481
0.00561468
0.0054008
0.00520162
0.00501571
0.00484188
0.00467902
0.0045262
0.00438255
0.00424735
0.00411988
0.00399959
0.00388588
0.00377832
0.00367641
0.00357979
0.00348808
0.00340095
0.0033181
0.00323925
0.00316416
0.00309259
0.00302432
0.00295917
0.00289694
0.00283748
0.00278065
0.00272625
0.00267421
0.00262439
0.0025767
0.00253086
0.00248706
0.00244522
0.00240472
0.00236551
0.00232946
0.00229437
0.0022568
0.00222487
0.00220236
0.00215842
0.00211207
0.00213497
0.00399645
0.00815576
0.0114459
0.0137848
0.0154537
0.0166874
0.0176429
0.0184107
0.0190418
0.0195695
0.0200151
0.0203999
0.0207379
0.0210371
0.0213136
0.0215658
0.0218056
0.0220271
0.0222387
0.0224594
0.022684
0.0228905
0.0230892
0.0232594
0.0234044
0.0235389
0.0236683
0.0236816
0.234479
0.132678
0.0866851
0.0622998
0.047776
0.0383524
0.0318319
0.0270921
0.0235105
0.0207191
0.018488
0.016667
0.0151545
0.0138796
0.0127911
0.0118516
0.0110327
0.0103131
0.00967596
0.00910807
0.00859891
0.00813998
0.00772434
0.00734625
0.00700096
0.00668448
0.00639342
0.00612496
0.0058766
0.00564627
0.00543211
0.00523258
0.00504623
0.00487192
0.0047085
0.00455509
0.0044108
0.00427492
0.00414674
0.00402569
0.00391121
0.00380284
0.00370011
0.00360264
0.00351007
0.00342205
0.00333832
0.00325855
0.00318254
0.00311003
0.00304081
0.00297472
0.00291152
0.0028511
0.00279328
0.00273791
0.00268487
0.00263406
0.00258537
0.00253853
0.00249369
0.00245085
0.00240938
0.00236909
0.00233187
0.00229601
0.00225748
0.00222381
0.00220049
0.00215853
0.00210745
0.00211945
0.00369315
0.00774114
0.0110775
0.0135
0.015251
0.0165558
0.0175701
0.0183865
0.0190583
0.0196205
0.0200958
0.0205063
0.0208667
0.0211859
0.0214799
0.0217481
0.022002
0.0222367
0.0224609
0.0226921
0.0229259
0.023142
0.023349
0.0235281
0.0236832
0.0238241
0.023966
0.0239857
0.234477
0.132672
0.0866765
0.0622908
0.0477676
0.0383451
0.0318262
0.0270882
0.0235088
0.0207197
0.0184909
0.0166724
0.0151623
0.0138898
0.0128035
0.011866
0.0110491
0.0103312
0.00969563
0.00912912
0.00862117
0.00816328
0.00774852
0.00737116
0.00702647
0.00671046
0.00641975
0.00615153
0.0059033
0.00567303
0.00545883
0.00525919
0.00507265
0.0048981
0.00473437
0.00458061
0.00443591
0.00429957
0.00417091
0.00404933
0.00393429
0.00382533
0.00372198
0.00362387
0.00353063
0.00344192
0.00335748
0.00327698
0.00320024
0.00312697
0.00305698
0.00299011
0.00292611
0.00286489
0.00280625
0.00275007
0.00269619
0.00264453
0.002595
0.00254731
0.00250158
0.00245787
0.00241557
0.00237438
0.0023361
0.00229959
0.00226035
0.00222498
0.00220082
0.00216108
0.00210594
0.00210896
0.00338022
0.00727539
0.0106523
0.0131611
0.0149986
0.0163787
0.0174556
0.0183238
0.0190388
0.0196377
0.0201446
0.0205825
0.0209668
0.0213072
0.0216198
0.021905
0.0221738
0.0224226
0.0226599
0.0229021
0.0231457
0.0233718
0.0235877
0.0237762
0.0239418
0.0240897
0.024244
0.0242712
0.234477
0.132666
0.0866686
0.0622825
0.0477597
0.038338
0.0318201
0.0270833
0.0235054
0.020718
0.018491
0.0166743
0.0151662
0.0138955
0.0128111
0.0118755
0.0110602
0.0103439
0.00970978
0.0091446
0.00863785
0.00818103
0.00776722
0.00739069
0.00704671
0.0067313
0.0064411
0.00617328
0.00592536
0.00569533
0.00548127
0.00528171
0.00509519
0.00492058
0.00475674
0.00460282
0.00445791
0.00432131
0.00419234
0.00407043
0.00395502
0.00384565
0.00374186
0.00364328
0.00354956
0.00346033
0.00337536
0.0032943
0.00321698
0.00314312
0.00307251
0.00300502
0.00294037
0.00287851
0.00281919
0.00276233
0.00270776
0.0026554
0.00260516
0.00255676
0.00251029
0.00246582
0.00242284
0.00238089
0.00234167
0.00230459
0.00226491
0.0022279
0.00220282
0.00216548
0.00210712
0.00210276
0.00307223
0.00676072
0.0101708
0.0127669
0.0146948
0.0161544
0.0172976
0.0182207
0.0189817
0.0196196
0.0201603
0.0206274
0.0210371
0.0214
0.0217324
0.0220357
0.0223202
0.0225839
0.022835
0.0230888
0.0233428
0.0235795
0.0238049
0.0240034
0.0241798
0.0243354
0.0245019
0.0245377
0.234476
0.132661
0.0866613
0.0622749
0.0477523
0.0383311
0.031814
0.0270782
0.0235013
0.020715
0.0184894
0.0166741
0.0151674
0.0138982
0.0128153
0.0118811
0.0110673
0.0103524
0.00971954
0.00915557
0.00864996
0.00819418
0.00778131
0.00740564
0.00706241
0.00674768
0.00645806
0.00619075
0.00594326
0.00571358
0.0054998
0.00530047
0.00511409
0.00493958
0.00477579
0.00462186
0.00447689
0.0043402
0.00421109
0.00408899
0.00397337
0.00386374
0.00375968
0.00366078
0.00356672
0.00347713
0.00339177
0.0033103
0.00323255
0.00315823
0.00308716
0.00301919
0.00295403
0.00289166
0.00283179
0.0027744
0.00271927
0.00266633
0.00261551
0.00256653
0.00251943
0.00247433
0.00243078
0.00238822
0.00234815
0.00231056
0.00227068
0.00223222
0.00220585
0.00217134
0.00211067
0.00209971
0.00278877
0.00619685
0.00963451
0.0123169
0.0143379
0.0158808
0.0170941
0.0180755