/*--------------------------------*- C++ -*----------------------------------*\
| =========                 |                                                 |
| \\      /  F ield         | OpenFOAM: The Open Source CFD Toolbox           |
|  \\    /   O peration     | Version:  3.0.0                                 |
|   \\  /    A nd           | Web:      www.OpenFOAM.org                      |
|    \\/     M anipulation  |                                                 |
\*---------------------------------------------------------------------------*/
FoamFile
{
    version     2.0;
    format      ascii;
    class       volScalarField;
    location    "200";
    object      nut;
}
// * * * * * * * * * * * * * * * * * * * * * * * * * * * * * * * * * * * * * //

dimensions      [0 2 -1 0 0 0 0];

internalField   nonuniform List<scalar> 
10000
(
7.99824e-05
5.02419e-05
3.83737e-05
3.24344e-05
2.89524e-05
2.66907e-05
2.51158e-05
2.39631e-05
2.30867e-05
2.23994e-05
2.18462e-05
2.13915e-05
2.10097e-05
2.06838e-05
2.04017e-05
2.01549e-05
1.99365e-05
1.97416e-05
1.95663e-05
1.94076e-05
1.92631e-05
1.91306e-05
1.90086e-05
1.88956e-05
1.87907e-05
1.86926e-05
1.86007e-05
1.85142e-05
1.84326e-05
1.83552e-05
1.82819e-05
1.8212e-05
1.81454e-05
1.80817e-05
1.80208e-05
1.79624e-05
1.79063e-05
1.78523e-05
1.78004e-05
1.77502e-05
1.77018e-05
1.7655e-05
1.76098e-05
1.75659e-05
1.75234e-05
1.74822e-05
1.74421e-05
1.74032e-05
1.73655e-05
1.73286e-05
1.72929e-05
1.72579e-05
1.7224e-05
1.71907e-05
1.71584e-05
1.71267e-05
1.70959e-05
1.70656e-05
1.70361e-05
1.70071e-05
1.69788e-05
1.69511e-05
1.69236e-05
1.68974e-05
1.687e-05
1.68454e-05
1.68186e-05
1.67964e-05
1.67696e-05
1.67417e-05
1.67172e-05
1.67118e-05
1.65831e-05
1.58924e-05
1.67224e-05
1.82794e-05
1.93401e-05
1.98576e-05
2.01358e-05
2.02581e-05
2.03402e-05
2.04206e-05
2.04747e-05
2.05368e-05
2.0601e-05
2.06676e-05
2.07089e-05
2.07512e-05
2.07895e-05
2.0844e-05
2.088e-05
2.09039e-05
2.09449e-05
2.09709e-05
2.10261e-05
2.10687e-05
2.10948e-05
2.11203e-05
2.11344e-05
2.11473e-05
0.000374232
0.000225297
0.000171066
0.000141325
0.000121086
0.000106003
9.42403e-05
8.48551e-05
7.72801e-05
7.11141e-05
6.60739e-05
6.19403e-05
5.85171e-05
5.56899e-05
5.3355e-05
5.14237e-05
4.98227e-05
4.84965e-05
4.7399e-05
4.64908e-05
4.57392e-05
4.51164e-05
4.46026e-05
4.41768e-05
4.38269e-05
4.35366e-05
4.32999e-05
4.31031e-05
4.29431e-05
4.28089e-05
4.27031e-05
4.26142e-05
4.25461e-05
4.24891e-05
4.24457e-05
4.24108e-05
4.23848e-05
4.2364e-05
4.23503e-05
4.2339e-05
4.23327e-05
4.23275e-05
4.23263e-05
4.2325e-05
4.23264e-05
4.23279e-05
4.23307e-05
4.23337e-05
4.2337e-05
4.23399e-05
4.23439e-05
4.23462e-05
4.235e-05
4.23518e-05
4.23552e-05
4.23559e-05
4.23587e-05
4.2359e-05
4.23608e-05
4.23607e-05
4.23605e-05
4.23607e-05
4.23578e-05
4.23592e-05
4.23483e-05
4.23577e-05
4.23456e-05
4.23568e-05
4.2326e-05
4.23954e-05
4.23329e-05
4.22992e-05
4.29097e-05
5.14161e-05
6.97366e-05
8.07383e-05
8.49415e-05
8.53112e-05
8.49199e-05
8.41297e-05
8.37697e-05
8.35533e-05
8.31081e-05
8.31936e-05
8.32953e-05
8.34273e-05
8.33398e-05
8.32564e-05
8.34171e-05
8.36897e-05
8.36125e-05
8.37012e-05
8.41001e-05
8.44496e-05
8.50014e-05
8.51093e-05
8.5218e-05
8.5397e-05
8.53651e-05
8.52166e-05
0.000562798
0.000367862
0.000286568
0.000242888
0.000214125
0.000192514
0.000174968
0.000160131
0.000147341
0.000136205
0.00012646
0.000117893
0.000110404
0.000103871
9.81439e-05
9.31186e-05
8.87257e-05
8.49004e-05
8.15765e-05
7.86913e-05
7.61912e-05
7.40293e-05
7.21677e-05
7.05639e-05
6.91914e-05
6.80144e-05
6.70159e-05
6.61632e-05
6.54509e-05
6.48467e-05
6.43498e-05
6.39302e-05
6.35941e-05
6.3313e-05
6.30935e-05
6.29184e-05
6.2786e-05
6.26872e-05
6.26211e-05
6.25768e-05
6.25579e-05
6.25546e-05
6.25708e-05
6.25962e-05
6.26368e-05
6.26841e-05
6.27411e-05
6.28038e-05
6.28711e-05
6.29435e-05
6.30196e-05
6.30965e-05
6.31779e-05
6.32583e-05
6.33423e-05
6.34232e-05
6.35078e-05
6.35895e-05
6.3673e-05
6.37534e-05
6.38341e-05
6.39135e-05
6.39907e-05
6.40691e-05
6.41336e-05
6.42206e-05
6.42834e-05
6.43671e-05
6.4408e-05
6.46074e-05
6.46425e-05
6.47471e-05
6.57242e-05
8.68186e-05
0.000130461
0.000156408
0.000168005
0.000171725
0.000172733
0.00017354
0.000175056
0.000176268
0.000177031
0.000178628
0.000179916
0.000181031
0.000181895
0.000182219
0.000183229
0.000184454
0.000184845
0.000185439
0.000186986
0.000188086
0.000189754
0.000190304
0.000190728
0.000191381
0.000191482
0.000191276
0.000656674
0.000461455
0.000368801
0.000317394
0.000284225
0.00026008
0.000240799
0.000224468
0.000210156
0.000197359
0.000185793
0.000175256
0.000165648
0.00015686
0.000148847
0.000141557
0.000134922
0.000128906
0.000123448
0.000118492
0.000114016
0.000109988
0.000106375
0.000103135
0.000100247
9.76712e-05
9.53903e-05
9.33651e-05
9.15878e-05
9.00171e-05
8.86533e-05
8.7451e-05
8.64234e-05
8.55137e-05
8.47526e-05
8.40924e-05
8.35365e-05
8.30693e-05
8.26816e-05
8.23588e-05
8.21052e-05
8.19014e-05
8.17511e-05
8.16363e-05
8.15684e-05
8.15257e-05
8.1517e-05
8.15299e-05
8.15652e-05
8.1623e-05
8.16941e-05
8.17803e-05
8.18808e-05
8.199e-05
8.21103e-05
8.22352e-05
8.23701e-05
8.25074e-05
8.26512e-05
8.27969e-05
8.29461e-05
8.30968e-05
8.32499e-05
8.34002e-05
8.3549e-05
8.37077e-05
8.3859e-05
8.40111e-05
8.41711e-05
8.44707e-05
8.45375e-05
8.48447e-05
8.64899e-05
0.000128369
0.000202153
0.000244009
0.000263536
0.000272401
0.000275375
0.000279474
0.000284491
0.000288375
0.000292066
0.000296146
0.000299533
0.000302433
0.000305333
0.000306533
0.000308858
0.000311926
0.000313017
0.00031439
0.000317558
0.00031969
0.000322783
0.000324142
0.000324938
0.00032631
0.00032665
0.000326461
0.00070423
0.00052264
0.000427756
0.00037271
0.000337033
0.000311416
0.000291387
0.00027475
0.000260308
0.00024739
0.000235624
0.000224764
0.000214681
0.000205266
0.000196464
0.000188237
0.000180543
0.000173338
0.000166612
0.000160352
0.000154533
0.000149138
0.000144125
0.000139485
0.000135216
0.000131287
0.000127691
0.000124398
0.000121407
0.000118679
0.000116223
0.000113989
0.000111999
0.000110193
0.000108599
0.000107152
0.000105908
0.000104796
0.000103809
0.000102949
0.000102214
0.000101571
0.000101026
0.000100559
0.000100179
9.98587e-05
9.9613e-05
9.94069e-05
9.92568e-05
9.91593e-05
9.90925e-05
9.90656e-05
9.90756e-05
9.91091e-05
9.91699e-05
9.92518e-05
9.93581e-05
9.94785e-05
9.96149e-05
9.97676e-05
9.99266e-05
0.000100108
0.000100281
0.000100478
0.000100657
0.00010088
0.000101074
0.000101279
0.000101514
0.000101924
0.00010201
0.000102522
0.000105742
0.000180484
0.000287168
0.000343631
0.000369524
0.0003833
0.000390102
0.000397618
0.000406445
0.000414532
0.000421529
0.000428537
0.000434363
0.000439615
0.000444675
0.000447757
0.000451481
0.000456449
0.000458693
0.000461069
0.00046607
0.00046932
0.000474059
0.000476314
0.00047762
0.000479959
0.000480585
0.000480428
0.000728798
0.000562603
0.000470404
0.000414584
0.000377692
0.000351222
0.000330831
0.000314138
0.000299829
0.000287173
0.000275728
0.000265174
0.000255338
0.000246091
0.000237352
0.000229073
0.000221213
0.000213735
0.000206621
0.000199865
0.000193445
0.000187346
0.000181582
0.000176135
0.000171006
0.000166156
0.000161605
0.000157333
0.000153351
0.000149627
0.00014618
0.000142969
0.00014002
0.000137282
0.000134786
0.000132477
0.000130386
0.000128491
0.00012674
0.000125187
0.000123799
0.000122525
0.000121399
0.000120397
0.000119524
0.000118741
0.000118071
0.000117482
0.000116993
0.000116569
0.000116206
0.000115926
0.000115705
0.000115528
0.000115404
0.000115327
0.000115293
0.00011529
0.000115321
0.000115388
0.000115472
0.000115596
0.000115722
0.000115887
0.000116043
0.000116262
0.000116438
0.000116621
0.000116919
0.000117357
0.000117497
0.000117925
0.000125069
0.000247759
0.000386884
0.000454928
0.000485309
0.000502828
0.000514188
0.000525012
0.000537966
0.000550328
0.000560885
0.000571222
0.000579719
0.000587665
0.000594932
0.000600117
0.000605408
0.00061212
0.000616005
0.000619567
0.000626383
0.000630795
0.000637342
0.000640567
0.000642557
0.000646083
0.000646933
0.000646835
0.00074149
0.000588611
0.0005012
0.000446521
0.00040956
0.000382792
0.0003622
0.000345502
0.00033139
0.000319052
0.00030797
0.00029783
0.000288437
0.000279621
0.000271279
0.000263342
0.00025576
0.000248494
0.000241513
0.000234806
0.000228355
0.000222145
0.000216182
0.00021045
0.000204951
0.000199684
0.000194661
0.000189858
0.000185281
0.000180917
0.000176793
0.000172873
0.000169191
0.000165706
0.00016245
0.000159386
0.000156528
0.000153877
0.000151399
0.000149103
0.000147015
0.000145046
0.000143269
0.00014165
0.000140175
0.000138807
0.000137593
0.0001365
0.000135524
0.000134651
0.000133867
0.000133201
0.000132612
0.000132088
0.000131655
0.0001313
0.000131001
0.000130756
0.000130573
0.000130447
0.000130355
0.000130321
0.000130306
0.000130349
0.000130399
0.000130528
0.000130606
0.000130753
0.00013097
0.000131319
0.000131458
0.000131966
0.000147452
0.000334131
0.00050086
0.000576511
0.000609499
0.000629402
0.000645417
0.000659992
0.000676841
0.000693359
0.000707473
0.000721266
0.000732506
0.000743334
0.00075277
0.000760056
0.000766966
0.000775296
0.000780921
0.000785918
0.000794511
0.000800139
0.000808599
0.000812882
0.000815814
0.000820709
0.000821614
0.000821641
0.000747927
0.000605317
0.000523217
0.000470791
0.000434637
0.000408101
0.000387575
0.000370962
0.000357008
0.000344916
0.000334177
0.000324443
0.000315462
0.000307077
0.000299192
0.000291703
0.00028455
0.000277683
0.000271066
0.000264676
0.000258494
0.000252498
0.00024669
0.000241054
0.000235589
0.000230291
0.000225164
0.000220195
0.000215412
0.000210792
0.000206348
0.000202057
0.000197956
0.000194014
0.00019026
0.000186672
0.000183261
0.000180029
0.00017697
0.000174066
0.000171362
0.000168793
0.0001664
0.00016416
0.000162104
0.000160123
0.000158357
0.000156719
0.000155196
0.000153796
0.000152523
0.000151374
0.000150333
0.000149382
0.000148538
0.000147805
0.00014713
0.000146541
0.000146048
0.000145624
0.000145252
0.00014496
0.000144712
0.000144538
0.000144391
0.00014433
0.000144238
0.00014426
0.000144324
0.000144467
0.000144549
0.000145194
0.000176823
0.000441456
0.000626881
0.000706194
0.000740286
0.000761901
0.000781847
0.000800966
0.000821203
0.000841686
0.000859268
0.000876506
0.00089049
0.000904294
0.000915797
0.000925189
0.000933484
0.000943581
0.000950633
0.000957332
0.000967752
0.000974648
0.000985071
0.000990557
0.00099474
0.00100111
0.00100188
0.0010021
0.000751067
0.000615831
0.000538701
0.000489032
0.000454274
0.000428421
0.000408244
0.000391855
0.000378103
0.000366237
0.000355764
0.000346341
0.000337724
0.000329744
0.000322258
0.000315176
0.000308451
0.000302012
0.000295814
0.000289827
0.000284027
0.000278388
0.000272904
0.000267556
0.000262342
0.00025725
0.000252287
0.000247434
0.000242713
0.000238098
0.000233621
0.00022926
0.000225038
0.000220923
0.00021695
0.000213103
0.000209393
0.00020582
0.000202395
0.000199093
0.000195956
0.000192944
0.000190086
0.000187354
0.000184802
0.00018234
0.000180045
0.000177895
0.000175867
0.000173952
0.000172206
0.000170566
0.000169037
0.00016762
0.000166326
0.00016515
0.000164064
0.000163061
0.000162191
0.000161385
0.000160655
0.000160028
0.00015947
0.000158992
0.000158568
0.000158227
0.000157897
0.000157703
0.000157528
0.000157427
0.000157443
0.000158094
0.000217601
0.000566673
0.000761448
0.000841418
0.000875716
0.000898755
0.000921795
0.000945746
0.00096962
0.000993684
0.00101463
0.00103523
0.00105195
0.0010688
0.00108218
0.00109305
0.00110317
0.00111453
0.00112326
0.00113181
0.00114416
0.00115239
0.00116476
0.00117168
0.00117746
0.00118525
0.0011858
0.00118624
0.0007525
0.00062227
0.000549358
0.000502516
0.00046948
0.00044464
0.000425066
0.000409066
0.000395599
0.000383984
0.000373759
0.000364599
0.000356269
0.0003486
0.000341458
0.000334752
0.000328392
0.000322321
0.000316514
0.000310919
0.000305509
0.000300255
0.000295143
0.000290153
0.000285279
0.000280504
0.000275833
0.000271243
0.000266753
0.000262337
0.000258021
0.000253776
0.000249631
0.00024557
0.000241613
0.000237733
0.000233955
0.000230269
0.000226696
0.000223213
0.000219854
0.000216594
0.000213457
0.000210417
0.000207524
0.000204722
0.000202046
0.000199497
0.000197072
0.000194746
0.000192559
0.000190498
0.000188523
0.000186678
0.00018497
0.000183355
0.000181838
0.000180422
0.000179132
0.000177941
0.000176822
0.000175811
0.000174899
0.000174052
0.000173294
0.000172613
0.000171997
0.000171502
0.000171033
0.000170659
0.000170489
0.000171112
0.000274604
0.000699803
0.000900603
0.000979648
0.00101389
0.00103838
0.00106439
0.00109224
0.00112072
0.00114796
0.00117216
0.00119602
0.00121554
0.00123475
0.00124974
0.00126218
0.00127449
0.00128658
0.00129725
0.00130782
0.00132227
0.00133191
0.00134619
0.00135478
0.0013626
0.00137149
0.00137194
0.00137259
0.000753084
0.00062608
0.000556502
0.000512276
0.000481066
0.000457439
0.000438665
0.000423207
0.00041013
0.000398821
0.000388859
0.00037995
0.00037187
0.000364462
0.000357595
0.000351179
0.00034513
0.000339397
0.000333918
0.000328652
0.00032359
0.00031869
0.000313934
0.000309298
0.000304774
0.000300341
0.000296003
0.000291732
0.000287546
0.000283415
0.000279363
0.000275359
0.00027143
0.000267551
0.000263742
0.000259994
0.000256323
0.000252703
0.000249162
0.000245682
0.000242286
0.000238962
0.000235727
0.000232562
0.000229502
0.000226521
0.000223631
0.000220839
0.000218151
0.000215551
0.000213052
0.00021067
0.000208372
0.000206178
0.000204097
0.000202131
0.000200221
0.000198451
0.000196786
0.00019522
0.000193714
0.000192335
0.000191033
0.000189844
0.000188741
0.000187681
0.000186756
0.000185894
0.000185143
0.000184445
0.000183872
0.000184678
0.000347954
0.000836498
0.00104092
0.00111862
0.00115307
0.00117929
0.00120834
0.00123988
0.00127205
0.00130359
0.00133065
0.00135766
0.0013801
0.00140086
0.00141787
0.00143181
0.0014463
0.0014594
0.00147132
0.00148422
0.00150096
0.0015121
0.00152819
0.00153873
0.00154858
0.00155858
0.00155916
0.00156003
0.000753272
0.000628239
0.000561144
0.000519166
0.000489718
0.000467385
0.000449535
0.00043474
0.00042215
0.000411215
0.000401557
0.000392911
0.000385074
0.000377901
0.000371271
0.000365097
0.000359299
0.000353828
0.000348625
0.000343659
0.000338888
0.00033428
0.000329833
0.000325511
0.000321308
0.000317196
0.000313178
0.000309227
0.000305355
0.000301533
0.000297778
0.000294063
0.000290407
0.000286787
0.00028322
0.00027969
0.000276211
0.000272771
0.00026939
0.000266044
0.00026275
0.000259504
0.000256317
0.000253179
0.000250106
0.000247096
0.000244146
0.000241266
0.00023846
0.000235726
0.000233063
0.00023049
0.00022799
0.000225573
0.000223238
0.000221008
0.000218836
0.000216772
0.000214784
0.000212926
0.000211077
0.000209403
0.000207758
0.000206241
0.000204819
0.000203405
0.000202089
0.000200975
0.000199899
0.00019864
0.000197769
0.000199175
0.000435904
0.000972541
0.00117958
0.00125644
0.00129175
0.00132016
0.00135242
0.00138759
0.00142326
0.00145842
0.00148905
0.00151912
0.00154369
0.0015662
0.00158545
0.00160105
0.00161768
0.00163196
0.00164503
0.00166024
0.00167934
0.00169209
0.00170987
0.00172249
0.00173444
0.00174558
0.00174662
0.00174766
0.000753293
0.000629398
0.000564054
0.000523892
0.00049603
0.000474965
0.000458091
0.000444037
0.000432012
0.000421515
0.000412209
0.000403855
0.000396273
0.000389332
0.000382921
0.000376962
0.00037138
0.000366127
0.00036115
0.000356416
0.000351889
0.000347544
0.000343354
0.000339291
0.000335358
0.000331526
0.000327793
0.00032413
0.000320548
0.000317018
0.000313553
0.000310127
0.000306755
0.000303414
0.000300117
0.000296848
0.000293618
0.000290414
0.000287246
0.000284107
0.000281006
0.000277935
0.000274895
0.00027189
0.000268921
0.000265996
0.000263109
0.000260268
0.000257474
0.000254733
0.000252037
0.000249405
0.000246826
0.000244311
0.000241851
0.000239471
0.000237144
0.000234901
0.000232701
0.000230627
0.000228568
0.000226639
0.000224717
0.000222946
0.000221265
0.000219574
0.000217889
0.000216581
0.000215306
0.000213184
0.00021214
0.000214701
0.000534777
0.00110432
0.00131442
0.00139155
0.00142866
0.00145984
0.00149555
0.00153435
0.00157349
0.00161143
0.00164515
0.0016788
0.00170528
0.00172968
0.00175159
0.00176911
0.00178786
0.00180346
0.00181782
0.00183523
0.00185666
0.00187114
0.00189048
0.00190531
0.00191937
0.00193173
0.00193365
0.00193478
0.000753258
0.000629974
0.000565801
0.00052703
0.000500512
0.000480615
0.000464702
0.00045142
0.000440007
0.000429999
0.000421088
0.00041306
0.000405756
0.000399057
0.000392865
0.00038711
0.000381725
0.000376665
0.000371881
0.000367342
0.000363015
0.000358875
0.000354899
0.000351066
0.000347361
0.000343756
0.000340259
0.000336844
0.000333513
0.00033024
0.000327036
0.000323873
0.000320766
0.00031769
0.000314658
0.000311651
0.000308679
0.000305729
0.000302806
0.000299906
0.000297026
0.000294171
0.00029134
0.000288534
0.000285742
0.00028298
0.000280238
0.000277526
0.000274839
0.00027219
0.000269565
0.000266982
0.000264433
0.000261928
0.000259458
0.000257041
0.000254666
0.000252353
0.00025006
0.000247865
0.000245694
0.000243618
0.000241518
0.000239571
0.000237736
0.0002358
0.000233851
0.000232427
0.00023099
0.00022824
0.000226725
0.000231227
0.000639169
0.00122929
0.00144379
0.00152273
0.00156271
0.0015973
0.00163676
0.00167929
0.00172186
0.00176279
0.00179929
0.00183566
0.00186494
0.00189131
0.00191579
0.00193532
0.00195621
0.00197324
0.00198901
0.00200858
0.00203231
0.00204864
0.00206942
0.00208659
0.00210278
0.00211643
0.00211963
0.0021208
0.000753213
0.000630229
0.000566797
0.000529037
0.000503599
0.000484721
0.000469703
0.000457177
0.000446393
0.000436902
0.000428419
0.000420748
0.000413745
0.000407305
0.000401343
0.000395794
0.0003906
0.00038572
0.000381111
0.000376744
0.000372588
0.000368621
0.000364822
0.000361169
0.00035765
0.000354245
0.00035095
0.000347734
0.000344609
0.000341553
0.00033857
0.000335635
0.000332759
0.000329919
0.000327126
0.000324359
0.000321629
0.000318922
0.00031624
0.00031358
0.000310935
0.000308314
0.000305701
0.000303113
0.000300535
0.00029798
0.000295429
0.0002929
0.000290381
0.000287887
0.000285403
0.000282947
0.000280507
0.000278096
0.000275706
0.000273344
0.000271013
0.000268724
0.000266441
0.000264222
0.000262033
0.000259908
0.000257735
0.000255698
0.000253801
0.000251714
0.000249592
0.000248132
0.000246552
0.000243302
0.000241605
0.000248583
0.000742679
0.001346
0.00156649
0.00164898
0.001693
0.00173168
0.00177523
0.0018216
0.00186766
0.00191169
0.00195095
0.00198974
0.00202201
0.00205052
0.00207752
0.00209913
0.00212218
0.00214077
0.00215809
0.00217978
0.00220578
0.00222409
0.00224619
0.00226587
0.00228417
0.00229914
0.00230398
0.00230523
0.000753175
0.000630315
0.000567326
0.000530265
0.000505655
0.000487621
0.000473395
0.000461575
0.000451403
0.000442436
0.000434397
0.000427102
0.000420421
0.000414259
0.000408539
0.000403205
0.000398205
0.000393503
0.000389061
0.000384853
0.000380852
0.000377037
0.000373389
0.000369889
0.000366525
0.000363279
0.000360145
0.000357104
0.000354156
0.000351275
0.000348471
0.000345726
0.000343044
0.000340404
0.000337815
0.000335258
0.000332741
0.00033025
0.000327786
0.000325348
0.000322925
0.000320526
0.000318134
0.000315766
0.0003134
0.000311054
0.000308715
0.000306394
0.00030407
0.000301766
0.000299463
0.000297178
0.000294898
0.000292635
0.000290385
0.000288143
0.000285925
0.000283731
0.000281536
0.000279373
0.000277246
0.000275152
0.000272997
0.000270955
0.000269081
0.000266929
0.000264728
0.000263321
0.000261664
0.000257942
0.000256346
0.000266213
0.000838725
0.00145402
0.00168158
0.0017695
0.00181874
0.00186223
0.00191022
0.00196061
0.00201023
0.00205747
0.00209957
0.00214082
0.00217603
0.00220682
0.00223631
0.00226008
0.00228533
0.00230559
0.00232458
0.0023484
0.00237664
0.00239706
0.00242036
0.00244283
0.00246313
0.00247941
0.0024863
0.00248768
0.000753149
0.000630324
0.000567579
0.000530976
0.00050697
0.000489605
0.000476047
0.000464857
0.000455256
0.000446795
0.000439198
0.000432288
0.000425941
0.00042007
0.000414604
0.000409495
0.000404697
0.000400176
0.000395901
0.000391848
0.000387994
0.000384319
0.000380808
0.000377442
0.000374212
0.0003711
0.000368102
0.0003652
0.000362393
0.000359663
0.000357014
0.000354422
0.000351895
0.00034942
0.000347001
0.00034462
0.000342282
0.000339976
0.0003377
0.000335455
0.000333227
0.000331028
0.000328837
0.000326672
0.00032451
0.000322369
0.000320229
0.000318107
0.000315986
0.000313883
0.000311773
0.000309677
0.000307581
0.000305494
0.000303416
0.000301334
0.000299271
0.000297217
0.000295161
0.000293111
0.000291104
0.000289104
0.000287035
0.000285056
0.000283277
0.00028113
0.000278928
0.000277659
0.000275995
0.000271845
0.000270546
0.000283319
0.000922203
0.00155155
0.00178823
0.00188357
0.00193926
0.00198826
0.00204108
0.0020957
0.00214901
0.00219959
0.00224463
0.00228842
0.00232654
0.00235974
0.00239176
0.00241777
0.00244526
0.00246732
0.0024881
0.00251405
0.00254451
0.00256717
0.00259159
0.00261739
0.00263928
0.00265682
0.0026663
0.00266779
0.000753131
0.000630298
0.000567677
0.00053136
0.000507774
0.000490913
0.000477896
0.000467243
0.000458152
0.00045016
0.000442987
0.000436456
0.000430444
0.000424869
0.000419667
0.000414792
0.000410201
0.000405869
0.000401764
0.000397867
0.000394158
0.000390619
0.000387236
0.000383994
0.000380885
0.000377892
0.000375012
0.000372228
0.00036954
0.000366931
0.000364405
0.000361944
0.000359553
0.000357211
0.000354926
0.000352688
0.000350497
0.000348345
0.000346226
0.000344142
0.00034208
0.000340051
0.000338035
0.000336047
0.000334066
0.000332108
0.000330153
0.000328218
0.000326281
0.000324362
0.000322442
0.000320538
0.000318627
0.000316723
0.000314826
0.00031292
0.00031103
0.00030914
0.000307249
0.000305346
0.000303494
0.000301628
0.000299688
0.000297821
0.000296186
0.000294103
0.00029195
0.000290886
0.000289285
0.00028476
0.000283879
0.000299072
0.000989357
0.00163684
0.00188566
0.00199055
0.00205394
0.00210918
0.00216724
0.00222634
0.00228351
0.00233754
0.00238568
0.00243213
0.00247317
0.0025089
0.00254351
0.00257185
0.00260163
0.00262562
0.00264832
0.00267642
0.00270907
0.00273409
0.00275966
0.00278814
0.00281241
0.00283101
0.00284371
0.00284525
0.00075312
0.000630262
0.000567696
0.000531542
0.000508235
0.00049174
0.000479141
0.000468928
0.000460274
0.000452701
0.000445919
0.000439747
0.000434061
0.000428781
0.000423843
0.000419205
0.000414829
0.000410689
0.000406759
0.000403021
0.000399458
0.000396055
0.000392799
0.000389676
0.000386681
0.000383797
0.000381023
0.000378344
0.00037576
0.000373255
0.000370833
0.000368477
0.000366193
0.000363965
0.000361798
0.000359677
0.000357602
0.000355572
0.000353582
0.00035163
0.000349705
0.000347816
0.000345945
0.000344106
0.000342278
0.000340476
0.000338683
0.000336911
0.000335141
0.00033339
0.000331639
0.000329902
0.000328167
0.00032644
0.000324718
0.000322986
0.000321268
0.000319549
0.000317829
0.000316085
0.000314401
0.000312692
0.0003109
0.000309173
0.00030771
0.000305736
0.000303655
0.000302837
0.000301375
0.000296512
0.000296099
0.000312795
0.00103745
0.0017088
0.00197318
0.00208981
0.00216221
0.00222444
0.00228817
0.00235204
0.00241326
0.00247092
0.00252233
0.00257157
0.00261557
0.00265397
0.00269123
0.00272201
0.00275415
0.00278021
0.00280494
0.00283521
0.00287006
0.00289753
0.00292434
0.00295518
0.00298218
0.00300172
0.00301824
0.00301981
0.000753113
0.000630227
0.000567675
0.000531612
0.000508478
0.000492235
0.000479946
0.000470079
0.000461786
0.000454572
0.000448138
0.000442295
0.000436916
0.000431918
0.000427239
0.000422837
0.000418675
0.000414731
0.000410979
0.000407404
0.00040399
0.000400724
0.000397595
0.000394591
0.000391706
0.000388929
0.000386255
0.000383673
0.000381182
0.00037877
0.000376438
0.000374174
0.000371981
0.000369845
0.000367771
0.000365747
0.000363774
0.000361847
0.000359957
0.00035811
0.000356296
0.000354521
0.000352768
0.00035105
0.000349348
0.000347676
0.000346016
0.000344381
0.000342753
0.000341147
0.000339543
0.000337957
0.000336373
0.000334798
0.000333234
0.000331665
0.000330109
0.00032855
0.000326995
0.000325408
0.000323888
0.00032234
0.000320702
0.000319122
0.000317839
0.000316003
0.000314001
0.000313435
0.000312195
0.00030702
0.000307063
0.000324094
0.00106453
0.00176668
0.00205022
0.00218075
0.00226349
0.00233352
0.00240339
0.00247234
0.00253787
0.00259933
0.00265419
0.0027064
0.00275344
0.00279463
0.00283465
0.00286798
0.00290255
0.00293083
0.0029577
0.00299017
0.00302721
0.00305722
0.00308543
0.00311836
0.00314833
0.00316888
0.00318978
0.0031912
0.000753109
0.000630194
0.000567638
0.000531619
0.000508589
0.000492511
0.000480443
0.000470836
0.000462829
0.000455913
0.000449777
0.000444225
0.000439124
0.00043439
0.000429957
0.000425783
0.000421832
0.000418081
0.000414508
0.000411096
0.000407833
0.000404706
0.000401706
0.000398821
0.000396047
0.000393374
0.000390798
0.00038831
0.000385907
0.000383582
0.000381333
0.000379151
0.000377037
0.000374982
0.000372986
0.000371043
0.000369151
0.000367306
0.000365505
0.000363747
0.000362021
0.000360334
0.000358677
0.000357056
0.000355457
0.000353889
0.000352338
0.000350814
0.000349302
0.000347815
0.000346334
0.000344875
0.00034342
0.000341979
0.000340549
0.000339115
0.000337699
0.000336288
0.000334882
0.000333439
0.000332068
0.000330676
0.000329183
0.000327743
0.000326637
0.000324952
0.000323024
0.000322683
0.000321731
0.000316284
0.000316713
0.000332926
0.00106914
0.00181022
0.0021161
0.0022628
0.00235722
0.00243591
0.00251244
0.00258684
0.00265694
0.00272241
0.00278093
0.0028363
0.00288648
0.00293061
0.00297349
0.00300951
0.00304658
0.00307724
0.00310638
0.00314107
0.0031803
0.00321292
0.00324274
0.00327752
0.00331063
0.00333228
0.00335843
0.00335917
0.000753105
0.000630166
0.000567598
0.000531595
0.000508623
0.000492648
0.000480729
0.000471312
0.000463522
0.000456843
0.000450955
0.000445651
0.000440796
0.000436299
0.000432092
0.000428133
0.000424383
0.00042082
0.000417422
0.000414173
0.000411061
0.000408073
0.000405202
0.000402438
0.000399776
0.000397207
0.000394729
0.000392333
0.000390017
0.000387775
0.000385604
0.000383499
0.000381457
0.000379475
0.000377549
0.000375676
0.000373854
0.000372079
0.000370348
0.000368661
0.00036701
0.000365402
0.00036382
0.000362275
0.000360756
0.000359272
0.000357808
0.000356374
0.000354955
0.000353564
0.000352182
0.000350827
0.000349476
0.000348146
0.000346828
0.000345512
0.000344213
0.00034292
0.00034164
0.000340325
0.000339085
0.000337834
0.000336472
0.000335154
0.00033421
0.000332679
0.000330814
0.000330657
0.000329998
0.000324391
0.000325071
0.000339567
0.00105018
0.0018401
0.00217014
0.00233532
0.00244286
0.0025311
0.00261487
0.00269511
0.00277011
0.00283984
0.00290224
0.00296098
0.00301443
0.00306165
0.00310751
0.00314636
0.00318602
0.00321921
0.00325074
0.00328771
0.00332914
0.00336443
0.00339609
0.00343241
0.00346886
0.00349176
0.00352249
0.00352359
0.000753102
0.000630141
0.000567558
0.000531558
0.000508615
0.000492702
0.000480879
0.000471592
0.000463963
0.000457466
0.000451775
0.000446677
0.000442031
0.000437741
0.000433737
0.000429974
0.000426411
0.000423026
0.000419795
0.000416704
0.000413739
0.000410889
0.000408147
0.000405503
0.000402953
0.00040049
0.000398109
0.000395806
0.000393576
0.000391416
0.000389321
0.00038729
0.000385319
0.000383404
0.000381544
0.000379735
0.000377975
0.000376261
0.000374591
0.000372965
0.000371375
0.000369827
0.00036831
0.000366831
0.000365379
0.000363959
0.000362563
0.000361199
0.000359854
0.00035854
0.000357236
0.000355964
0.000354697
0.000353456
0.000352226
0.000351007
0.000349803
0.000348611
0.000347435
0.000346224
0.000345086
0.000343958
0.000342715
0.000341494
0.000340689
0.000339314
0.000337495
0.000337461
0.000337081
0.000331487
0.000332196
0.000344489
0.00100825
0.00185554
0.0022115
0.00239762
0.00251984
0.00261858
0.00271022
0.00279678
0.00287703
0.00295129
0.00301781
0.00308015
0.00313703
0.00318751
0.00323647
0.00327831
0.00332067
0.00335655
0.0033906
0.00342988
0.00347354
0.00351154
0.00354529
0.00358277
0.0036228
0.0036471
0.00368206
0.00368419
0.0007531
0.000630119
0.000567522
0.000531518
0.000508586
0.000492708
0.000480945
0.000471745
0.000464227
0.000457865
0.000452326
0.000447392
0.000442918
0.000438804
0.000434976
0.000431386
0.000427993
0.000424771
0.000421697
0.000418755
0.000415931
0.000413215
0.000410599
0.000408074
0.000405635
0.000403277
0.000400994
0.000398783
0.000396639
0.000394561
0.000392543
0.000390586
0.000388682
0.000386834
0.000385035
0.000383287
0.000381584
0.000379927
0.000378312
0.00037674
0.000375203
0.000373708
0.000372244
0.000370818
0.000369421
0.000368056
0.000366719
0.000365411
0.000364122
0.000362867
0.000361626
0.000360419
0.000359216
0.000358047
0.000356886
0.000355744
0.000354615
0.000353503
0.000352412
0.000351286
0.000350231
0.000349201
0.000348054
0.000346908
0.000346217
0.000344998
0.000343207
0.000343225
0.000343176
0.000337685
0.000338149
0.000348197
0.000945736
0.00185449
0.00223923
0.00244893
0.00258753
0.00269784
0.00279805
0.00289142
0.00297733
0.00305645
0.00312735
0.00319354
0.00325404
0.00330794
0.00336015
0.00340513
0.00345031
0.00348905
0.00352574
0.0035674
0.00361333
0.00365408
0.00369018
0.00372822
0.00377224
0.00379812
0.00383705
0.00384079
0.000753097
0.000630099
0.000567489
0.000531478
0.00050855
0.000492688
0.00048096
0.000471815
0.000464373
0.000458106
0.00045268
0.000447873
0.000443536
0.000439566
0.000435887
0.000432446
0.000429201
0.000426126
0.000423194
0.00042039
0.000417699
0.00041511
0.000412615
0.000410204
0.000407874
0.000405619
0.000403432
0.000401314
0.000399256
0.00039726
0.000395318
0.000393433
0.000391598
0.000389815
0.000388078
0.000386388
0.000384741
0.000383138
0.000381575
0.000380052
0.000378564
0.000377116
0.000375699
0.000374318
0.000372968
0.000371648
0.000370358
0.000369096
0.000367859
0.000366652
0.000365457
0.000364301
0.000363149
0.000362036
0.000360929
0.000359846
0.000358775
0.000357726
0.000356701
0.000355644
0.00035465
0.000353701
0.000352638
0.000351543
0.000350928
0.000349865
0.000348091
0.000348088
0.000348432
0.000343182
0.000342977
0.000351115
0.000866386
0.00183466
0.00225219
0.00248843
0.00264525
0.00276835
0.0028779
0.00297864
0.00307066
0.003155
0.00323058
0.00330087
0.00336519
0.00342272
0.00347833