/*--------------------------------*- C++ -*----------------------------------*\
| =========                 |                                                 |
| \\      /  F ield         | OpenFOAM: The Open Source CFD Toolbox           |
|  \\    /   O peration     | Version:  3.0.0                                 |
|   \\  /    A nd           | Web:      www.OpenFOAM.org                      |
|    \\/     M anipulation  |                                                 |
\*---------------------------------------------------------------------------*/
FoamFile
{
    version     2.0;
    format      ascii;
    class       volScalarField;
    location    "200";
    object      p;
}
// * * * * * * * * * * * * * * * * * * * * * * * * * * * * * * * * * * * * * //

dimensions      [0 2 -2 0 0 0 0];

internalField   nonuniform List<scalar> 
10000
(
0.0473798
0.0166546
0.0129427
0.0127396
0.011816
0.0113062
0.0110283
0.0107439
0.0104766
0.0102429
0.0100286
0.0098271
0.00963741
0.00945777
0.00928667
0.00912293
0.00896562
0.00881397
0.00866741
0.00852542
0.00838752
0.0082533
0.00812251
0.00799485
0.00787007
0.00774803
0.00762856
0.00751151
0.00739676
0.00728423
0.00717381
0.0070655
0.00695916
0.00685484
0.00675225
0.00665164
0.00655263
0.00645558
0.00636002
0.00626634
0.006174
0.00608363
0.00599446
0.00590724
0.0058212
0.00573714
0.00565406
0.00557317
0.00549309
0.00541564
0.00533854
0.00526468
0.0051908
0.00512059
0.00505064
0.0049828
0.00491533
0.00485395
0.00479239
0.00473395
0.00467572
0.00461833
0.00457203
0.00451573
0.00446447
0.00438337
0.00433054
0.00422751
0.00412868
0.0039149
0.00356842
0.00307335
0.00259165
0.00255461
0.00286895
0.00296853
0.00295681
0.00271494
0.00240108
0.00211097
0.00180318
0.00156764
0.00131581
0.00113656
0.000949756
0.000807408
0.000660727
0.000553127
0.00043596
0.000348924
0.00025188
0.000175313
9.98721e-05
4.72564e-05
1.66756e-05
-2.18395e-05
-5.91422e-05
-8.21243e-05
-2.25643e-06
-8.98621e-06
0.0287155
0.0121437
0.0121919
0.0126448
0.0118057
0.0112962
0.0110156
0.0107341
0.0104713
0.0102413
0.0100298
0.00983033
0.00964211
0.00946356
0.00929324
0.00913004
0.00897308
0.00882164
0.00867518
0.0085332
0.00839524
0.00826093
0.00812999
0.00800216
0.00787719
0.00775495
0.00763527
0.00751801
0.00740304
0.00729031
0.00717968
0.00707118
0.00696464
0.00686013
0.00675736
0.00665658
0.0065574
0.00646019
0.00636448
0.00627065
0.00617817
0.00608767
0.00599837
0.00591103
0.00582487
0.00574071
0.00565752
0.00557653
0.00549635
0.00541881
0.00534163
0.00526768
0.00519373
0.00512342
0.00505341
0.0049855
0.00491799
0.0048565
0.0047949
0.00473635
0.00467812
0.00462063
0.00457421
0.00451774
0.00446637
0.00438527
0.0043321
0.00422906
0.0041294
0.00391527
0.00356797
0.00307276
0.00259443
0.00255627
0.00285891
0.0029427
0.00291981
0.00267496
0.00236293
0.00207679
0.00177361
0.00154206
0.0012941
0.00111813
0.000933982
0.000793637
0.000648787
0.000542706
0.000426964
0.000341029
0.000245134
0.000169648
9.52378e-05
4.30874e-05
1.25958e-05
-2.56352e-05
-6.21665e-05
-8.47814e-05
-4.74805e-06
-1.16441e-05
0.0240968
0.0123889
0.0124261
0.0126906
0.0118296
0.0113163
0.0110302
0.0107457
0.0104811
0.0102498
0.0100373
0.00983735
0.00964883
0.00947015
0.00929976
0.00913651
0.00897957
0.00882817
0.00868175
0.0085398
0.00840186
0.00826755
0.00813661
0.00800876
0.00788376
0.00776147
0.00764172
0.00752438
0.00740933
0.00729651
0.00718578
0.00707717
0.00697052
0.00686589
0.00676301
0.0066621
0.00656279
0.00646547
0.00636964
0.00627568
0.00618309
0.00609247
0.00600306
0.0059156
0.00582935
0.00574507
0.00566179
0.00558069
0.00550042
0.00542277
0.00534551
0.00527146
0.00519744
0.00512702
0.00505694
0.00498894
0.0049214
0.00485979
0.00479812
0.00473947
0.00468122
0.00462371
0.00457707
0.00452057
0.00446899
0.00438844
0.00433498
0.00423294
0.00413331
0.00392111
0.00357591
0.00308553
0.00261677
0.00257346
0.0028499
0.00290695
0.00286843
0.00262143
0.00231362
0.00203319
0.00173608
0.00150921
0.00126624
0.00109408
0.000913155
0.000775068
0.000632568
0.000528521
0.000414726
0.000330173
0.000236006
0.000162065
8.91333e-05
3.73006e-05
6.76031e-06
-3.1076e-05
-6.62958e-05
-8.85251e-05
-8.04282e-06
-1.5747e-05
0.0244437
0.0133609
0.0126614
0.0127253
0.0118591
0.011342
0.0110481
0.0107589
0.0104915
0.010258
0.010044
0.00984296
0.00965378
0.00947462
0.0093039
0.00914043
0.00898335
0.00883189
0.00868543
0.00854348
0.00840556
0.0082713
0.00814041
0.00801262
0.00788768
0.00776546
0.00764577
0.00752849
0.00741349
0.00730071
0.00719002
0.00708143
0.00697479
0.00687016
0.00676729
0.00666636
0.00656704
0.00646969
0.00637383
0.00627982
0.0061872
0.00609653
0.00600708
0.00591956
0.00583326
0.00574892
0.00566559
0.00558442
0.00550412
0.0054264
0.00534909
0.00527495
0.00520092
0.0051304
0.00506028
0.00499222
0.0049247
0.00486297
0.00480126
0.00474254
0.00468432
0.00462688
0.00458
0.00452365
0.00447194
0.00439246
0.00433897
0.00423907
0.00414064
0.00393321
0.00359432
0.0031167
0.00267012
0.00262811
0.00287059
0.00288923
0.00282583
0.00257256
0.00226736
0.00199158
0.00169984
0.00147672
0.00123844
0.00106959
0.000891829
0.000755875
0.000615667
0.000513631
0.000402026
0.000318717
0.000226381
0.000154125
8.29111e-05
3.14581e-05
8.29077e-07
-3.68737e-05
-7.04476e-05
-9.23965e-05
-1.1425e-05
-2.07371e-05
0.0244208
0.0137627
0.0127546
0.0127398
0.0118832
0.0113627
0.0110617
0.0107691
0.0104997
0.0102646
0.0100494
0.00984763
0.00965785
0.00947826
0.00930721
0.00914351
0.00898626
0.00883466
0.00868811
0.00854608
0.00840813
0.00827385
0.00814296
0.00801519
0.00789028
0.0077681
0.00764846
0.00753124
0.0074163
0.00730357
0.00719294
0.00708441
0.00697782
0.00687324
0.00677041
0.00666952
0.00657025
0.00647291
0.00637707
0.00628308
0.00619048
0.00609981
0.00601036
0.00592283
0.00583654
0.00575217
0.00566884
0.00558763
0.00550733
0.00542956
0.00535226
0.00527806
0.00520403
0.00513343
0.00506329
0.00499519
0.0049277
0.00486586
0.00480411
0.00474532
0.0046871
0.00462974
0.00458253
0.00452636
0.00447447
0.00439625
0.00434274
0.0042456
0.00414914
0.00394853
0.00361996
0.00316306
0.00275003
0.00271555
0.00291887
0.00289241
0.00279838
0.00253547
0.00223077
0.00195801
0.00167028
0.00144942
0.00121478
0.00104818
0.000873076
0.000738897
0.00060064
0.000500247
0.000390815
0.000308409
0.000217683
0.000146979
7.75109e-05
2.65305e-05
-4.24636e-06
-4.22125e-05
-7.38956e-05
-9.57689e-05
-1.43234e-05
-2.60484e-05
0.0238056
0.0139228
0.0128184
0.0127505
0.0119033
0.01138
0.0110731
0.0107777
0.010507
0.0102707
0.0100545
0.00985202
0.00966173
0.00948173
0.00931036
0.0091464
0.00898894
0.00883717
0.00869048
0.00854834
0.0084103
0.00827596
0.00814501
0.0080172
0.00789228
0.00777009
0.00765045
0.00753324
0.00741833
0.00730563
0.00719504
0.00708655
0.00698
0.00687545
0.00677267
0.00667182
0.00657262
0.0064753
0.0063795
0.00628556
0.006193
0.00610234
0.00601293
0.00592542
0.00583916
0.00575479
0.00567149
0.00559027
0.00551
0.00543221
0.00535493
0.0052807
0.00520671
0.00513603
0.00506591
0.00499779
0.00493036
0.00486839
0.00480665
0.00474779
0.00468962
0.0046323
0.00458474
0.00452872
0.00447668
0.00439978
0.0043463
0.00425222
0.00415833
0.00396628
0.00365179
0.00322376
0.00285246
0.00282883
0.00298718
0.00291206
0.00278516
0.00251089
0.00220476
0.00193361
0.00164865
0.00142869
0.00119654
0.00103107
0.000858032
0.00072515
0.000588435
0.000489248
0.000381831
0.000299998
0.000210534
0.000141143
7.33018e-05
2.28497e-05
-8.1049e-06
-4.66899e-05
-7.63624e-05
-9.8416e-05
-1.65582e-05
-3.14521e-05
0.023129
0.0140828
0.0128902
0.0127611
0.0119222
0.0113964
0.0110838
0.010786
0.010514
0.0102765
0.0100595
0.00985633
0.00966556
0.00948516
0.00931348
0.00914926
0.00899157
0.0088396
0.00869275
0.00855047
0.00841231
0.00827787
0.00814683
0.00801896
0.00789398
0.00777174
0.00765208
0.00753485
0.00741992
0.00730723
0.00719663
0.00708816
0.00698162
0.0068771
0.00677434
0.00667352
0.00657436
0.00647706
0.00638129
0.0062874
0.00619487
0.00610422
0.00601487
0.00592739
0.00584116
0.00575681
0.00567356
0.00559235
0.00551213
0.00543431
0.0053571
0.00528284
0.0052089
0.00513816
0.00506808
0.00499996
0.00493261
0.00487052
0.00480882
0.00474989
0.00469177
0.00463453
0.00458663
0.0045308
0.00447864
0.00440321
0.00434988
0.00425935
0.00416876
0.00398714
0.00369084
0.00329946
0.00297512
0.00296159
0.00306829
0.00294323
0.00278346
0.00249754
0.00218857
0.00191773
0.00163449
0.00141437
0.00118375
0.00101847
0.000846905
0.000714802
0.00057921
0.000480793
0.000375163
0.00029369
0.000205164
0.000136788
7.03895e-05
2.04654e-05
-1.07437e-05
-5.02162e-05
-7.7792e-05
-0.000100344
-1.80001e-05
-3.68144e-05
0.0225274
0.0142523
0.0129622
0.0127711
0.0119408
0.0114126
0.0110943
0.0107941
0.0105208
0.0102822
0.0100643
0.00986058
0.00966934
0.00948858
0.00931659
0.00915211
0.00899419
0.00884203
0.00869501
0.00855258
0.00841428
0.00827972
0.00814858
0.00802062
0.00789556
0.00777326
0.00765354
0.00753627
0.0074213
0.00730858
0.00719797
0.00708947
0.00698294
0.00687841
0.00677566
0.00667484
0.00657569
0.00647841
0.00638266
0.00628879
0.00619629
0.00610565
0.00601635
0.00592889
0.00584268
0.00575834
0.00567515
0.00559395
0.00551378
0.00543595
0.0053588
0.00528452
0.00521065
0.00513985
0.00506984
0.0050017
0.00493446
0.00487226
0.00481063
0.00475162
0.00469361
0.00463642
0.00458824
0.0045326
0.00448044
0.00440659
0.00435365
0.00426702
0.00418069
0.00401148
0.00373789
0.00339077
0.00311624
0.00310833
0.00315709
0.00298225
0.00279089
0.00249388
0.00218109
0.00190936
0.0016269
0.0014058
0.00117596
0.00101014
0.000839522
0.000707702
0.000572823
0.000474773
0.000370664
0.000289445
0.000201637
0.000134002
6.87808e-05
1.9315e-05
-1.21497e-05
-5.26696e-05
-7.81946e-05
-0.00010162
-1.87541e-05
-4.21454e-05
0.0219774
0.0144057
0.0130288
0.0127807
0.0119594
0.0114287
0.0111047
0.0108021
0.0105276
0.0102878
0.0100691
0.00986479
0.00967311
0.00949199
0.0093197
0.00915496
0.00899683
0.00884448
0.00869728
0.0085547
0.00841626
0.00828157
0.00815033
0.00802226
0.00789712
0.00777474
0.00765495
0.00753761
0.00742259
0.00730983
0.00719918
0.00709066
0.00698409
0.00687954
0.00677678
0.00667594
0.0065768
0.00647951
0.00638376
0.00628989
0.00619741
0.00610677
0.0060175
0.00593005
0.00584386
0.00575952
0.00567639
0.00559518
0.00551504
0.00543721
0.00536013
0.00528581
0.00521201
0.00514116
0.0050712
0.00500307
0.00493592
0.00487361
0.00481205
0.00475296
0.00469503
0.00463794
0.00458947
0.00453406
0.00448195
0.00440983
0.00435749
0.00427521
0.00419416
0.00403934
0.00379316
0.00349646
0.00327283
0.003263
0.00324944
0.00302682
0.00280578
0.00249856
0.00218142
0.00190767
0.00162515
0.00140238
0.00117279
0.0010058
0.000835623
0.000703631
0.000569108
0.000471069
0.000368175
0.000287137
0.000199939
0.000132771
6.84651e-05
1.93462e-05
-1.24192e-05
-5.40912e-05
-7.76021e-05
-0.000102327
-1.87643e-05
-4.73553e-05
0.0214583
0.0145367
0.0130897
0.0127897
0.0119778
0.0114446
0.011115
0.0108101
0.0105343
0.0102934
0.0100739
0.009869
0.00967688
0.0094954
0.00932282
0.00915784
0.00899949
0.00884695
0.00869959
0.00855685
0.00841827
0.00828346
0.0081521
0.00802393
0.00789869
0.00777623
0.00765636
0.00753895
0.00742387
0.00731106
0.00720036
0.00709179
0.00698519
0.0068806
0.00677782
0.00667695
0.00657779
0.00648048
0.00638473
0.00629084
0.00619837
0.00610772
0.00601845
0.005931
0.00584483
0.00576048
0.00567737
0.00559616
0.00551605
0.0054382
0.00536118
0.00528682
0.00521308
0.00514218
0.00507227
0.00500412
0.00493708
0.00487466
0.00481318
0.004754
0.00469618
0.00463916
0.00459043
0.00453523
0.00448328
0.00441291
0.00436137
0.00428373
0.00420888
0.00407031
0.00385585
0.00361437
0.00344113
0.00341992
0.00334246
0.00307519
0.00282676
0.00251024
0.00218849
0.00191187
0.00162847
0.00140352
0.00117372
0.00100508
0.000834857
0.00070233
0.000567873
0.000469556
0.000367546
0.000286585
0.000199979
0.000133085
6.94099e-05
2.04887e-05
-1.15275e-05
-5.44147e-05
-7.60824e-05
-0.000102507
-1.81893e-05
-5.25177e-05
0.0209655
0.014647
0.0131456
0.012798
0.0119959
0.0114603
0.0111254
0.0108182
0.0105411
0.0102991
0.0100787
0.00987323
0.00968066
0.00949884
0.00932597
0.00916074
0.00900218
0.00884945
0.00870192
0.00855903
0.00842032
0.00828538
0.0081539
0.00802563
0.00790029
0.00777774
0.00765779
0.00754031
0.00742517
0.00731229
0.00720154
0.00709292
0.00698628
0.00688164
0.00677882
0.00667792
0.00657873
0.0064814
0.00638563
0.00629171
0.00619923
0.00610856
0.00601929
0.00593182
0.00584566
0.00576129
0.00567819
0.00559697
0.00551688
0.00543901
0.00536203
0.00528762
0.00521393
0.00514298
0.00507311
0.00500494
0.00493799
0.00487546
0.00481403
0.00475476
0.00469702
0.00464007
0.00459108
0.00453612
0.00448431
0.00441579
0.00436522
0.00429248
0.00422467
0.00410385
0.00392488
0.00374085
0.00361617
0.00357366
0.00343365
0.00312619
0.00285277
0.0025278
0.0022014
0.00192129
0.00163636
0.00140877
0.0011784
0.00100765
0.000836927
0.00070357
0.000568989
0.00047013
0.00036869
0.000287635
0.000201619
0.000134838
7.1576e-05
2.27011e-05
-9.6048e-06
-5.37685e-05
-7.3725e-05
-0.000102209
-1.69121e-05
-5.75432e-05
0.0204984
0.0147385
0.0131964
0.0128054
0.0120136
0.0114759
0.0111356
0.0108263
0.0105479
0.0103048
0.0100835
0.0098775
0.00968449
0.00950231
0.00932914
0.00916367
0.0090049
0.00885198
0.00870428
0.00856124
0.00842239
0.00828732
0.00815573
0.00802735
0.00790192
0.00777928
0.00765925
0.0075417
0.00742649
0.00731355
0.00720274
0.00709406
0.00698737
0.00688269
0.00677983
0.00667889
0.00657967
0.0064823
0.00638651
0.00629256
0.00620006
0.00610936
0.00602008
0.00593258
0.00584642
0.00576203
0.00567893
0.00559769
0.00551762
0.00543971
0.00536277
0.0052883
0.00521465
0.00514363
0.00507379
0.0050056
0.00493875
0.0048761
0.00481472
0.00475535
0.00469769
0.00464081
0.00459156
0.00453684
0.00448523
0.00441851
0.00436908
0.00430127
0.00424118
0.00413922
0.00399855
0.00387254
0.00379273
0.00372055
0.00352164
0.00317876
0.00288284
0.00255012
0.00221905
0.0019351
0.00164816
0.00141762
0.00118633
0.0010131
0.000841512
0.000707123
0.000572272
0.000472651
0.000371498
0.000290166
0.000204714
0.000137968
7.48956e-05
2.5907e-05
-6.62813e-06
-5.21278e-05
-7.06073e-05
-0.000101438
-1.51147e-05
-6.25482e-05
0.020056
0.0148125
0.013242
0.0128117
0.0120307
0.0114911
0.0111458
0.0108344
0.0105548
0.0103105
0.0100885
0.00988181
0.00968835
0.00950581
0.00933235
0.00916663
0.00900765
0.00885455
0.00870668
0.00856348
0.00842449
0.0082893
0.00815759
0.00802911
0.00790358
0.00778085
0.00766074
0.00754312
0.00742783
0.00731483
0.00720396
0.00709523
0.00698849
0.00688376
0.00678086
0.00667987
0.00658062
0.0064832
0.00638738
0.0062934
0.00620088
0.00611015
0.00602085
0.00593332
0.00584715
0.00576273
0.00567963
0.00559836
0.00551829
0.00544034
0.00536342
0.0052889
0.00521528
0.00514419
0.00507436
0.00500615
0.00493937
0.00487659
0.00481524
0.00475578
0.00469817
0.00464136
0.00459184
0.00453737
0.00448596
0.00442105
0.00437289
0.00431006
0.00425816
0.00417585
0.00407516
0.00400561
0.0039654
0.00385774
0.00360527
0.0032322
0.00291619
0.00257636
0.0022407
0.00195264
0.0016634
0.00142966
0.00119719
0.00102119
0.000848412
0.0007128
0.000577584
0.000476995
0.000375882
0.00029408
0.000209139
0.000142328
7.92953e-05
3.00526e-05
-2.75709e-06
-4.96568e-05
-6.67962e-05
-0.000100231
-1.26659e-05
-6.74289e-05
0.0196371
0.0148698
0.0132825
0.0128168
0.0120469
0.011506
0.0111559
0.0108425
0.0105617
0.0103163
0.0100934
0.00988618
0.00969227
0.00950937
0.00933561
0.00916964
0.00901044
0.00885715
0.00870911
0.00856576
0.00842663
0.00829131
0.00815949
0.00803089
0.00790527
0.00778245
0.00766226
0.00754456
0.0074292
0.00731613
0.00720521
0.00709642
0.00698963
0.00688485
0.0067819
0.00668087
0.00658158
0.00648412
0.00638827
0.00629425
0.00620171
0.00611094
0.00602162
0.00593406
0.00584787
0.00576342
0.00568031
0.00559901
0.00551895
0.00544095
0.00536404
0.00528946
0.00521587
0.0051447
0.00507488
0.00500665
0.00493994
0.00487702
0.0048157
0.00475614
0.00469859
0.00464182
0.00459207
0.00453783
0.00448668
0.00442349
0.0043767
0.00431877
0.00427525
0.00421297
0.00415276
0.00413696
0.00413006
0.00398401
0.00368426
0.00328578
0.00295201
0.00260564
0.00226545
0.00197316
0.00168137
0.00144428
0.00121046
0.00103158
0.000857387
0.000720391
0.000584715
0.000483003
0.000381715
0.000299293
0.000214791
0.000147847
8.4693e-05
3.50474e-05
2.03602e-06
-4.63123e-05
-6.23321e-05
-9.85775e-05
-9.80591e-06
-7.23398e-05
0.0192404
0.0149116
0.013318
0.0128206
0.0120623
0.0115203
0.0111658
0.0108505
0.0105685
0.0103221
0.0100984
0.0098906
0.00969623
0.00951297
0.00933891
0.00917269
0.00901327
0.00885979
0.00871157
0.00856807
0.00842879
0.00829335
0.00816141
0.0080327
0.00790698
0.00778407
0.0076638
0.00754602
0.0074306
0.00731746
0.00720648
0.00709763
0.00699079
0.00688595
0.00678297
0.00668189
0.00658256
0.00648506
0.00638918
0.00629511
0.00620255
0.00611174
0.0060224
0.0059348
0.0058486
0.00576411
0.00568099
0.00559965
0.00551959
0.00544154
0.00536464
0.00529
0.00521642
0.00514517
0.00507536
0.00500709
0.00494044
0.00487739
0.00481606
0.00475641
0.00469889
0.00464216
0.00459218
0.00453817
0.00448728
0.00442582
0.00438045
0.00432738
0.0042923
0.00425001
0.00422972
0.00426341
0.00428334
0.00409855
0.00375822
0.00333906
0.0029897
0.00263733
0.00229278
0.00199618
0.00170173
0.00146113
0.00122586
0.00104407
0.000868303
0.000729739
0.000593512
0.000490536
0.000388893
0.00030571
0.00022156
0.00015438
9.10135e-05
4.08276e-05
7.56641e-06
-4.22578e-05
-5.72711e-05
-9.65228e-05
-6.37732e-06
-7.71494e-05
0.0188647
0.014939
0.0133485
0.0128229
0.0120767
0.0115342
0.0111754
0.0108585
0.0105754
0.0103279
0.0101034
0.00989505
0.00970024
0.00951662
0.00934226
0.00917578
0.00901614
0.00886246
0.00871408
0.00857041
0.00843099
0.00829542
0.00816336
0.00803454
0.00790873
0.00778572
0.00766536
0.0075475
0.00743201
0.00731881
0.00720777
0.00709886
0.00699197
0.00688708
0.00678405
0.00668292
0.00658355
0.00648601
0.0063901
0.00629599
0.0062034
0.00611256
0.00602319
0.00593556
0.00584934
0.00576481
0.00568168
0.0056003
0.00552023
0.00544214
0.00536524
0.00529054
0.00521697
0.00514564
0.00507582
0.00500752
0.00494093
0.00487774
0.00481642
0.00475668
0.00469919
0.00464249
0.00459229
0.00453851
0.00448791
0.00442811
0.0043842
0.00433582
0.00430905
0.00428623
0.00430432
0.00438279
0.00442336
0.00420172
0.00382734
0.0033915
0.00302857
0.00267072
0.00232196
0.00202105
0.0017239
0.00147975
0.0012429
0.00105829
0.000880909
0.000740648
0.00060377
0.000499439
0.00039729
0.000313249
0.00022936
0.000161874
9.81842e-05
4.73038e-05
1.38708e-05
-3.74348e-05
-5.16482e-05
-9.40555e-05
-2.64286e-06
-8.20352e-05
0.0185089
0.0149531
0.0133741
0.0128238
0.0120899
0.0115474
0.0111847
0.0108663
0.0105822
0.0103337
0.0101084
0.00989953
0.00970428
0.0095203
0.00934565
0.00917892
0.00901905
0.00886518
0.00871662
0.00857279
0.00843323
0.00829752
0.00816534
0.00803641
0.00791049
0.0077874
0.00766695
0.00754901
0.00743345
0.00732018
0.00720907
0.00710011
0.00699316
0.00688822
0.00678514
0.00668397
0.00658456
0.00648698
0.00639103
0.00629688
0.00620426
0.00611338
0.00602399
0.00593632
0.00585008
0.00576552
0.00568237
0.00560096
0.00552087
0.00544274
0.00536583
0.00529107
0.00521751
0.0051461
0.00507627
0.00500794
0.00494138
0.00487806
0.00481672
0.00475689
0.0046994
0.00464273
0.00459232
0.00453878
0.00448849
0.00443031
0.00438791
0.00434409
0.00432541
0.00432122
0.0043753
0.00449318
0.00454882
0.00429382
0.00389157
0.00344281
0.00306816
0.00270535
0.00235263
0.00204746
0.00174765
0.00149994
0.00126144
0.00107403
0.000895036
0.000752968
0.000615353
0.000509579
0.000406802
0.000321807
0.000238082
0.000170191
0.000106132
5.44251e-05
2.07456e-05
-3.20184e-05
-4.55186e-05
-9.12337e-05
1.5969e-06
-8.68326e-05
0.018172
0.0149551
0.013395
0.0128231
0.0121019
0.01156
0.0111937
0.0108739
0.0105889
0.0103394
0.0101135
0.00990402
0.00970834
0.00952401
0.00934907
0.00918209
0.009022
0.00886794
0.0087192
0.00857521
0.0084355
0.00829965
0.00816735
0.00803831
0.00791229
0.0077891
0.00766856
0.00755054
0.00743491
0.00732157
0.0072104
0.00710138
0.00699437
0.00688938
0.00678625
0.00668504
0.00658558
0.00648796
0.00639198
0.00629778
0.00620514
0.00611422
0.00602481
0.0059371
0.00585084
0.00576624
0.00568307
0.00560162
0.00552153
0.00544334
0.00536643
0.0052916
0.00521805
0.00514657
0.00507672
0.00500836
0.00494183
0.00487839
0.00481702
0.00475712
0.00469963
0.004643
0.00459238
0.00453908
0.00448912
0.0044325
0.0043916
0.00435211
0.0043412
0.00435445
0.00444143
0.00459353
0.00465949
0.00437576
0.00395124
0.00349258
0.00310788
0.00274058
0.00238414
0.00207485
0.00177245
0.00152129
0.00128109
0.00109098
0.000910417
0.000766504
0.000628077
0.000520816
0.000417314
0.000331305
0.000247654
0.000179298
0.000114793
6.2113e-05
2.82362e-05
-2.59408e-05
-3.8912e-05
-8.80489e-05
6.06821e-06
-9.17399e-05
0.017853
0.0149459
0.0134113
0.012821
0.0121127
0.0115719
0.0112024
0.0108814
0.0105955
0.0103451
0.0101185
0.0099085
0.00971241
0.00952775
0.00935252
0.00918529
0.00902499
0.00887072
0.00872181
0.00857766
0.0084378
0.00830182
0.00816939
0.00804024
0.00791411
0.00779082
0.0076702
0.0075521
0.00743639
0.00732297
0.00721175
0.00710266
0.0069956
0.00689055
0.00678738
0.00668611
0.00658662
0.00648895
0.00639293
0.0062987
0.00620602
0.00611507
0.00602563
0.00593788
0.0058516
0.00576696
0.00568378
0.00560228
0.00552218
0.00544395
0.00536703
0.00529214
0.00521858
0.00514703
0.00507715
0.00500876
0.00494225
0.00487869
0.00481728
0.00475729
0.00469979
0.00464319
0.00459239
0.00453933
0.0044897
0.00443461
0.00439523
0.00435988
0.00435635
0.00438567
0.00450188
0.00468292
0.00475538
0.0044482
0.00400642
0.00354065
0.0031474
0.00277611
0.0024163
0.00210303
0.00179816
0.00154364
0.00130177
0.00110901
0.000926907
0.000781117
0.000641825
0.000533029
0.000428724
0.000341639
0.00025797
0.000189061
0.000124092
7.033e-05
3.61326e-05
-1.93914e-05
-3.18852e-05
-8.45634e-05
1.10092e-05
-9.65663e-05
0.0175508
0.0149266
0.0134232
0.0128173
0.0121221
0.0115831
0.0112106
0.0108886
0.0106019
0.0103507
0.0101234
0.00991298
0.00971649
0.00953149
0.00935598
0.00918851
0.00902799
0.00887354
0.00872445
0.00858014
0.00844013
0.00830402
0.00817146
0.0080422
0.00791596
0.00779258
0.00767186
0.00755368
0.00743789
0.0073244
0.00721311
0.00710396
0.00699685
0.00689174
0.00678852
0.00668721
0.00658767
0.00648995
0.0063939
0.00629962
0.00620692
0.00611592
0.00602646
0.00593867
0.00585236
0.0057677
0.00568449
0.00560296
0.00552284
0.00544456
0.00536763
0.00529268
0.00521911
0.0051475
0.0050776
0.00500917
0.00494268
0.00487901
0.00481755
0.0047575
0.00469997
0.00464341
0.00459244
0.0045396
0.00449034
0.0044367
0.00439883
0.00436734
0.0043707
0.00441443
0.00455591
0.00476102
0.00483711
0.00451205
0.00405741
0.00358667
0.00318623
0.0028114
0.00244852
0.00213151
0.00182432
0.00156663
0.00132313
0.00112784
0.000944268
0.000796628
0.000656432
0.000546092
0.000440928
0.000352738
0.000268971
0.000199459
0.00013397
7.9014e-05
4.45126e-05
-1.22995e-05
-2.44763e-05
-8.07555e-05
1.61273e-05
-0.000101543
0.0172644
0.0148981
0.0134307
0.0128121
0.0121301
0.0115935
0.0112184
0.0108955
0.0106082
0.0103563
0.0101283
0.00991742
0.00972055
0.00953524
0.00935946
0.00919175
0.00903102
0.00887638
0.00872711
0.00858265
0.00844249
0.00830624
0.00817356
0.00804418
0.00791784
0.00779435
0.00767355
0.00755528
0.00743941
0.00732585
0.00721449
0.00710528
0.00699811
0.00689295
0.00678968
0.00668831
0.00658873
0.00649097
0.00639488
0.00630056
0.00620782
0.00611679
0.00602729
0.00593947
0.00585314
0.00576843
0.0056852
0.00560363
0.0055235
0.00544517
0.00536823
0.00529322
0.00521964
0.00514795
0.00507803
0.00500957
0.00494308
0.00487929
0.00481778
0.00475765
0.00470009
0.00464357
0.00459242
0.00453983
0.00449093
0.00443871
0.00440234
0.00437449
0.0043842
0.00444056
0.00460321
0.00482757
0.00490529
0.00456795
0.00410432
0.00363061
0.00322419
0.00284628
0.00248071
0.0021602
0.00185087
0.00159017
0.00134513
0.00114738
0.000962392
0.00081292
0.000671798
0.000559896
0.000453827
0.000364497
0.000280548
0.000210364
0.000144354
8.81328e-05
5.31817e-05
-4.85777e-06
-1.67507e-05
-7.66986e-05
2.16804e-05
-0.000106447
0.016993
0.0148613
0.0134341
0.0128053
0.0121367
0.011603
0.0112258
0.0109021
0.0106144
0.0103617
0.0101332
0.00992183
0.0097246
0.00953898
0.00936293
0.009195
0.00903407
0.00887924
0.0087298
0.00858518
0.00844487
0.00830849
0.00817568
0.00804618
0.00791974
0.00779615
0.00767525
0.0075569
0.00744095
0.00732732
0.00721589
0.00710662
0.00699938
0.00689417
0.00679085
0.00668943
0.0065898
0.006492
0.00639587
0.00630151
0.00620873
0.00611766
0.00602814
0.00594028
0.00585392
0.00576918
0.00568592
0.00560432
0.00552416
0.00544579
0.00536883
0.00529377
0.00522017
0.00514842
0.00507846
0.00500997
0.00494348
0.00487959
0.00481802
0.00475783
0.00470023
0.00464375
0.00459244
0.0045401
0.00449156
0.00444069
0.00440578
0.00438125
0.00439672
0.00446375
0.0046435
0.00488265
0.00496074
0.00461655
0.00414733
0.00367215
0.00326085
0.00288027
0.00251236
0.00218865
0.00187739
0.00161391
0.00136744
0.00116738
0.000981067
0.00082983
0.00068778
0.000574334
0.000467341
0.000376862
0.000292656
0.000221766
0.000155191
9.76299e-05
6.22374e-05
3.01888e-06
-8.74039e-06
-7.23801e-05
2.7349e-05
-0.000111524
0.0167358
0.0148171
0.0134335
0.0127971
0.012142
0.0116117
0.0112326
0.0109085
0.0106203
0.0103669
0.0101379
0.00992618
0.00972861
0.0095427
0.00936641
0.00919825
0.00903712
0.00888211
0.0087325
0.00858772
0.00844728
0.00831075
0.00817782
0.00804821
0.00792165
0.00779797
0.00767698
0.00755854
0.00744251
0.00732881
0.00721731
0.00710797
0.00700068
0.0068954
0.00679203
0.00669056
0.00659089
0.00649303
0.00639687
0.00630246
0.00620965
0.00611854
0.00602899
0.00594109
0.0058547
0.00576992
0.00568664
0.005605
0.00552482
0.0054464
0.00536943
0.0052943
0.00522068
0.00514887
0.00507887
0.00501035
0.00494385
0.00487985
0.00481821
0.00475795
0.0047003
0.00464386
0.00459239
0.00454031
0.00449211
0.00444259
0.00440908
0.00438763
0.00440821
0.004484
0.00467685
0.00492637
0.00500422
0.00465832
0.00418658
0.00371135
0.00329616
0.00291332
0.00254347
0.00221684
0.00190387
0.00163781
0.00139004
0.00118778
0.00100022
0.000847261
0.000704288
0.000589303
0.00048137
0.000389728
0.00030519
0.000233537
0.00016641
0.000107481
7.14827e-05
1.11303e-05
-4.99739e-07
-6.78823e-05
3.34061e-05
-0.000116524
0.0164917
0.0147663
0.013429
0.0127874
0.0121457
0.0116195
0.011239
0.0109145
0.010626
0.0103721
0.0101426
0.00993047
0.00973259
0.0095464
0.00936987
0.0092015
0.00904017
0.00888498
0.00873521
0.00859028
0.00844969
0.00831304
0.00817998
0.00805025
0.00792359
0.0077998
0.00767872
0.00756019
0.00744409
0.00733031
0.00721874
0.00710934
0.00700198
0.00689665
0.00679322
0.0066917
0.00659198
0.00649408
0.00639788
0.00630342
0.00621058
0.00611943
0.00602985
0.00594191
0.00585549
0.00577068
0.00568737
0.00560569
0.00552549
0.00544702
0.00537003
0.00529485
0.0052212
0.00514933
0.00507929
0.00501074
0.00494423
0.00488012
0.00481842
0.0047581
0.0047004
0.00464398
0.00459238
0.00454055
0.00449268
0.00444446
0.00441222
0.00439362
0.00441855
0.00450125
0.0047033
0.00495918
0.00503651
0.00469365
0.00422211
0.00374791
0.00332972
0.00294504
0.00257358
0.00224439
0.00192995
0.00166157
0.00141264
0.00120835
0.00101965
0.000865069
0.000721199
0.000604716
0.000495847
0.000403055
0.000318123
0.000245682
0.000177967
0.000117636
8.1029e-05
1.9568e-05
7.94769e-06
-6.31865e-05
3.95097e-05
-0.000121714
0.0162602
0.0147096
0.0134208
0.0127763
0.012148
0.0116265
0.0112448
0.0109201
0.0106315
0.0103771
0.0101471
0.0099347
0.00973652
0.00955007
0.00937331
0.00920474
0.00904322
0.00888786
0.00873793
0.00859285
0.00845212
0.00831533
0.00818216
0.00805231
0.00792554
0.00780165
0.00768048
0.00756186
0.00744568
0.00733182
0.00722019
0.00711072
0.0070033
0.00689791
0.00679443
0.00669285
0.00659309
0.00649514
0.00639889
0.0063044
0.00621152
0.00612033
0.00603071
0.00594273
0.00585628
0.00577143
0.00568809
0.00560637
0.00552615
0.00544764
0.00537062
0.00529538
0.00522171
0.00514978
0.00507969
0.0050111
0.00494456
0.00488036
0.00481857
0.00475819
0.00470043
0.00464404
0.00459232
0.00454071
0.00449319
0.00444623
0.00441516
0.00439921
0.00442768
0.00451567
0.00472312
0.0049817
0.00505827
0.00472283
0.00425406
0.00378195
0.00336159
0.00297545
0.0026028
0.00227134
0.00195569
0.0016852
0.00143526
0.00122906
0.0010393
0.000883173
0.00073843
0.000620475
0.000510675
0.000416739
0.000331349
0.000258075
0.000189792
0.000128071
9.06784e-05
2.81297e-05
1.65533e-05
-5.83748e-05
4.59478e-05
-0.000126824
0.0160403
0.0146477
0.0134091
0.0127638
0.0121489
0.0116325
0.0112501
0.0109254
0.0106367
0.0103819
0.0101516
0.00993884
0.00974039
0.00955371
0.00937673
0.00920796
0.00904627
0.00889074
0.00874065
0.00859542
0.00845456
0.00831764
0.00818434
0.00805438
0.0079275
0.00780352
0.00768225
0.00756355
0.00744728
0.00733335
0.00722165
0.00711211
0.00700463
0.00689918
0.00679564
0.00669402
0.0065942
0.00649621
0.00639992
0.00630538
0.00621246
0.00612123
0.00603158
0.00594356
0.00585708
0.00577219
0.00568883
0.00560707
0.00552681
0.00544826
0.00537121
0.00529592
0.00522222
0.00515023
0.0050801
0.00501147
0.0049449
0.00488061
0.00481873
0.0047583
0.00470048
0.0046441
0.00459228
0.00454088
0.00449372
0.00444791
0.00441794
0.00440437
0.00443558
0.00452735
0.0047366
0.00499472
0.00507008
0.00474601
0.00428231
0.00381317
0.00339142
0.0030042
0.00263069
0.00229733
0.00198073
0.00170841
0.00145763
0.00124971
0.00105902
0.000901448
0.000755882
0.000636514
0.000525806
0.000430754
0.000344856
0.00027073
0.000201848
0.000138737
0.000100545
3.69183e-05
2.52985e-05
-5.34197e-05
5.23667e-05
-0.000132147
0.0158314
0.0145813
0.0133939
0.0127498
0.0121483
0.0116375
0.0112548
0.0109303
0.0106417
0.0103865
0.0101559
0.0099429
0.00974421
0.0095573
0.00938012
0.00921117
0.0090493
0.00889361
0.00874337
0.008598
0.00845699
0.00831995
0.00818653
0.00805646
0.00792948
0.00780539
0.00768403
0.00756524
0.0074489
0.00733489
0.00722312
0.00711351
0.00700597
0.00690046
0.00679687
0.00669519
0.00659533
0.00649728
0.00640095
0.00630636
0.00621341
0.00612213
0.00603245
0.00594439
0.00585788
0.00577295
0.00568956
0.00560776
0.00552747
0.00544887
0.0053718
0.00529645
0.00522271
0.00515066
0.00508048
0.00501182