/*--------------------------------*- C++ -*----------------------------------*\
| =========                 |                                                 |
| \\      /  F ield         | OpenFOAM: The Open Source CFD Toolbox           |
|  \\    /   O peration     | Version:  3.0.0                                 |
|   \\  /    A nd           | Web:      www.OpenFOAM.org                      |
|    \\/     M anipulation  |                                                 |
\*---------------------------------------------------------------------------*/
FoamFile
{
    version     2.0;
    format      ascii;
    class       surfaceScalarField;
    location    "200";
    object      phi;
}
// * * * * * * * * * * * * * * * * * * * * * * * * * * * * * * * * * * * * * //

dimensions      [0 3 -1 0 0 0 0];

internalField   nonuniform List<scalar> 
19800
(
0.00186452
0.000143079
0.00177876
8.57586e-05
0.00173881
3.99527e-05
0.00170774
3.10641e-05
0.00168049
2.72492e-05
0.00165625
2.42453e-05
0.00163365
2.25964e-05
0.00161209
2.15625e-05
0.00159145
2.06387e-05
0.0015717
1.97485e-05
0.00155283
1.8873e-05
0.00153483
1.79998e-05
0.00151771
1.7128e-05
0.00150145
1.6256e-05
0.00148606
1.53948e-05
0.0014715
1.45588e-05
0.00145774
1.37566e-05
0.00144475
1.29917e-05
0.00143248
1.2267e-05
0.0014209
1.15858e-05
0.00140995
1.09494e-05
0.00139959
1.03565e-05
0.00138979
9.80515e-06
0.0013805
9.29337e-06
0.00137168
8.81847e-06
0.0013633
8.37786e-06
0.00135533
7.96893e-06
0.00134774
7.58993e-06
0.00134051
7.23816e-06
0.0013336
6.91025e-06
0.00132699
6.60367e-06
0.00132068
6.31758e-06
0.00131463
6.04962e-06
0.00130883
5.80021e-06
0.00130326
5.5663e-06
0.00129792
5.34747e-06
0.00129278
5.14231e-06
0.00128783
4.94956e-06
0.00128306
4.76803e-06
0.00127847
4.59834e-06
0.00127403
4.43803e-06
0.00126975
4.28697e-06
0.0012656
4.14399e-06
0.0012616
4.00962e-06
0.00125772
3.88186e-06
0.00125396
3.76136e-06
0.00125031
3.64657e-06
0.00124678
3.5385e-06
0.00124334
3.43523e-06
0.00124001
3.33815e-06
0.00123676
3.2442e-06
0.00123361
3.15802e-06
0.00123054
3.07236e-06
0.00122755
2.99682e-06
0.00122462
2.92207e-06
0.00122178
2.85743e-06
0.001219
2.78039e-06
0.00121629
2.72438e-06
0.00121363
2.65672e-06
0.00121104
2.61662e-06
0.00120849
2.55518e-06
0.001206
2.52035e-06
0.00120356
2.47127e-06
0.00120115
2.4671e-06
0.00119883
2.44057e-06
0.00119649
2.353e-06
0.00119436
2.28452e-06
0.00119219
2.00467e-06
0.00119051
1.92834e-06
0.00118932
8.65598e-07
0.00119019
-9.92215e-07
0.00119051
-3.56638e-07
0.00119416
-4.47637e-06
0.00121411
-1.87526e-05
0.00124772
-3.28806e-05
0.00128352
-3.6471e-05
0.0013158
-3.20308e-05
0.00134146
-2.60146e-05
0.00136198
-2.06121e-05
0.00137853
-1.66012e-05
0.00139216
-1.37871e-05
0.00140373
-1.15269e-05
0.00141343
-9.86809e-06
0.00142201
-8.5403e-06
0.00142943
-7.46671e-06
0.00143597
-6.43132e-06
0.00144153
-5.60664e-06
0.00144651
-4.90185e-06
0.00145085
-4.37701e-06
0.00145477
-3.84842e-06
0.00145816
-3.4065e-06
0.00146128
-3.04057e-06
0.00146416
-2.89967e-06
0.00146687
-2.74454e-06
0.00146936
-2.43815e-06
0.0014715
-1.98065e-06
0.00147327
-1.8608e-06
0.00147463
-1.57844e-06
0.00147622
-1.39985e-06
-5.43311e-07
0.00201343
0.000170151
0.0019726
0.000126584
0.00193998
7.25797e-05
0.00191487
5.61711e-05
0.00189471
4.74058e-05
0.00187764
4.1319e-05
0.00186237
3.7871e-05
0.00184815
3.57793e-05
0.00183459
3.42013e-05
0.00182144
3.28966e-05
0.00180856
3.17515e-05
0.00179588
3.06801e-05
0.00178337
2.96354e-05
0.00177103
2.85993e-05
0.00175885
2.75712e-05
0.00174686
2.6553e-05
0.00173507
2.55454e-05
0.00172351
2.45508e-05
0.00171221
2.35746e-05
0.00170117
2.26233e-05
0.00169042
2.17012e-05
0.00167997
2.08102e-05
0.00166982
1.99524e-05
0.00165998
1.91294e-05
0.00165046
1.83417e-05
0.00164125
1.75893e-05
0.00163235
1.68722e-05
0.00162375
1.61898e-05
0.00161545
1.55409e-05
0.00160743
1.49243e-05
0.0015997
1.43383e-05
0.00159223
1.37826e-05
0.00158503
1.32548e-05
0.00157807
1.27565e-05
0.00157136
1.22827e-05
0.00156487
1.18348e-05
0.00155861
1.14099e-05
0.00155255
1.10075e-05
0.00154669
1.06253e-05
0.00154103
1.02651e-05
0.00153555
9.92193e-06
0.00153024
9.59714e-06
0.0015251
9.28761e-06
0.00152011
8.99559e-06
0.00151528
8.71596e-06
0.00151059
8.45206e-06
0.00150604
8.19878e-06
0.00150162
7.96073e-06
0.00149733
7.73085e-06
0.00149315
7.5158e-06
0.00148909
7.30551e-06
0.00148514
7.1133e-06
0.00148129
6.92074e-06
0.00147754
6.74944e-06
0.00147388
6.57994e-06
0.00147032
6.43172e-06
0.00146684
6.26226e-06
0.00146345
6.13147e-06
0.00146012
5.98178e-06
0.00145688
5.87864e-06
0.0014537
5.74799e-06
0.0014506
5.64868e-06
0.00144755
5.54791e-06
0.00144458
5.49312e-06
0.00144168
5.4611e-06
0.00143878
5.27255e-06
0.00143601
5.18813e-06
0.00143322
4.63917e-06
0.00143057
4.785e-06
0.00142834
2.78543e-06
0.00142828
-1.07618e-06
0.00142825
-3.75324e-07
0.00143276
-9.67238e-06
0.00145258
-3.76583e-05
0.00148288
-6.26494e-05
0.00151386
-6.78954e-05
0.00154157
-5.95778e-05
0.00156413
-4.88052e-05
0.00158281
-3.93574e-05
0.00159838
-3.22039e-05
0.00161151
-2.70261e-05
0.0016228
-2.2785e-05
0.00163243
-1.96127e-05
0.00164087
-1.69465e-05
0.00164814
-1.4778e-05
0.00165455
-1.2767e-05
0.00166007
-1.11488e-05
0.00166494
-9.72381e-06
0.0016692
-8.65828e-06
0.00167299
-7.59502e-06
0.00167627
-6.69273e-06
0.00167923
-5.94338e-06
0.00168188
-5.56352e-06
0.00168428
-5.16921e-06
0.00168647
-4.59385e-06
0.00168835
-3.77046e-06
0.00168993
-3.48581e-06
0.00169118
-2.96643e-06
0.00169256
-2.67741e-06
-1.12769e-06
0.00206687
0.000177228
0.00204681
0.000146637
0.00202485
9.45444e-05
0.00200568
7.53446e-05
0.00198966
6.34209e-05
0.00197607
5.49135e-05
0.00196412
4.98132e-05
0.0019533
4.66015e-05
0.00194324
4.42619e-05
0.00193369
4.24464e-05
0.00192448
4.09654e-05
0.00191548
3.96751e-05
0.00190663
3.84911e-05
0.00189786
3.73707e-05
0.00188914
3.62916e-05
0.00188045
3.52416e-05
0.00187178
3.4212e-05
0.00186314
3.31979e-05
0.00185451
3.22e-05
0.00184592
3.12194e-05
0.00183736
3.02554e-05
0.00182886
2.93087e-05
0.00182044
2.83809e-05
0.00181209
2.74737e-05
0.00180385
2.65874e-05
0.00179571
2.57233e-05
0.0017877
2.48825e-05
0.00177983
2.40656e-05
0.0017721
2.32728e-05
0.00176452
2.25048e-05
0.00175709
2.17617e-05
0.00174983
2.10444e-05
0.00174274
2.03526e-05
0.0017358
1.96884e-05
0.00172904
1.90471e-05
0.00172244
1.84331e-05
0.00171601
1.78422e-05
0.00170974
1.72762e-05
0.00170364
1.67332e-05
0.00169769
1.62154e-05
0.00169189
1.5717e-05
0.00168625
1.52412e-05
0.00168076
1.47846e-05
0.0016754
1.43497e-05
0.00167019
1.39307e-05
0.00166511
1.35326e-05
0.00166016
1.31485e-05
0.00165534
1.27854e-05
0.00165064
1.24327e-05
0.00164606
1.2101e-05
0.00164159
1.17761e-05
0.00163723
1.14766e-05
0.00163297
1.11766e-05
0.00162881
1.09068e-05
0.00162476
1.06396e-05
0.0016208
1.04025e-05
0.00161692
1.0138e-05
0.00161313
9.92711e-06
0.00160942
9.69116e-06
0.0016058
9.51792e-06
0.00160224
9.31049e-06
0.00159876
9.14246e-06
0.00159535
8.98025e-06
0.00159201
8.86545e-06
0.00158875
8.7945e-06
0.00158552
8.51134e-06
0.00158244
8.35565e-06
0.00157935
7.6306e-06
0.00157649
7.79215e-06
0.00157421
4.89805e-06
0.00157333
-2.58225e-07
0.00157258
3.55872e-07
0.00157779
-1.53474e-05
0.00159656
-5.58838e-05
0.00162214
-8.79158e-05
0.0016469
-9.29458e-05
0.00166884
-8.14223e-05
0.00168707
-6.71787e-05
0.00170251
-5.48349e-05
0.00171569
-4.54101e-05
0.00172701
-3.84096e-05
0.00173685
-3.26149e-05
0.00174535
-2.81764e-05
0.00175277
-2.43494e-05
0.00175919
-2.12195e-05
0.00176486
-1.83894e-05
0.00176977
-1.60789e-05
0.00177407
-1.39992e-05
0.00177782
-1.24205e-05
0.00178115
-1.08954e-05
0.00178405
-9.59235e-06
0.00178662
-8.48805e-06
0.00178888
-7.83529e-06
0.00179089
-7.19396e-06
0.0017927
-6.37788e-06
0.00179428
-5.27812e-06
0.00179561
-4.85798e-06
0.00179666
-4.11258e-06
0.00179779
-3.71365e-06
-1.61292e-06
0.00210981
0.000175355
0.00210007
0.000156372
0.00208526
0.000109353
0.00207061
9.00018e-05
0.00205752
7.65077e-05
0.00204605
6.63873e-05
0.00203589
5.997e-05
0.00202675
5.574e-05
0.00201838
5.26357e-05
0.00201057
5.02559e-05
0.00200317
4.8362e-05
0.00199608
4.67725e-05
0.00198919
4.5377e-05
0.00198245
4.41109e-05
0.00197581
4.2934e-05
0.00196923
4.18221e-05
0.00196268
4.07589e-05
0.00195615
3.97329e-05
0.00194961
3.87369e-05
0.00194306
3.77669e-05
0.0019365
3.68184e-05
0.00192992
3.58895e-05
0.00192332
3.49789e-05
0.00191671
3.40849e-05
0.00191009
3.32057e-05
0.00190347
3.2342e-05
0.00189686
3.14933e-05
0.00189027
3.06599e-05
0.0018837
2.98414e-05
0.00187717
2.90383e-05
0.00187068
2.8251e-05
0.00186424
2.74806e-05
0.00185787
2.67273e-05
0.00185157
2.5994e-05
0.00184534
2.52775e-05
0.00183919
2.45815e-05
0.00183313
2.39014e-05
0.00182716
2.3244e-05
0.00182129
2.26063e-05
0.00181552
2.19894e-05
0.00180985
2.1389e-05
0.00180428
2.0811e-05
0.00179881
2.02507e-05
0.00179345
1.97116e-05
0.0017882
1.91876e-05
0.00178304
1.86855e-05
0.001778
1.8198e-05
0.00177305
1.77339e-05
0.0017682
1.72789e-05
0.00176346
1.68488e-05
0.00175881
1.64259e-05
0.00175426
1.60318e-05
0.00174979
1.5637e-05
0.00174543
1.52784e-05
0.00174114
1.49234e-05
0.00173695
1.46027e-05
0.00173284
1.4252e-05
0.00172881
1.39637e-05
0.00172485
1.36493e-05
0.00172098
1.34058e-05
0.00171717
1.31281e-05
0.00171344
1.28914e-05
0.00170978
1.26715e-05
0.00170618
1.24939e-05
0.00170267
1.23835e-05
0.0016992
1.20036e-05
0.00169587
1.1762e-05
0.00169253
1.08772e-05
0.00168949
1.09513e-05
0.00168708
7.11454e-06
0.00168545
1.27318e-06
0.00168468
1.07685e-06
0.00169157
-2.26219e-05
0.00170925
-7.31232e-05
0.00172938
-0.000107815
0.00174769
-0.000111434
0.001764
-9.76697e-05
0.00177801
-8.12827e-05
0.0017902
-6.70562e-05
0.00180086
-5.60837e-05
0.00181019
-4.7779e-05
0.00181842
-4.08373e-05
0.00182559
-3.53983e-05
0.00183189
-3.06377e-05
0.00183738
-2.67169e-05
0.00184223
-2.3212e-05
0.00184646
-2.03217e-05
0.00185017
-1.76892e-05
0.00185339
-1.56444e-05
0.00185624
-1.37255e-05
0.00185873
-1.20859e-05
0.00186093
-1.06717e-05
0.00186285
-9.75391e-06
0.00186452
-8.87377e-06
0.00186603
-7.87394e-06
0.00186735
-6.56285e-06
0.00186846
-5.98781e-06
0.00186932
-5.02922e-06
0.00187023
-4.58259e-06
-2.04286e-06
0.00214895
0.000168892
0.00214523
0.000160085
0.00213556
0.000119029
0.00212462
0.000100941
0.00211409
8.70406e-05
0.0021044
7.60698e-05
0.00209561
6.87624e-05
0.00208762
6.37359e-05
0.00208028
5.99719e-05
0.00207347
5.70638e-05
0.00206708
5.47519e-05
0.00206102
5.28351e-05
0.00205521
5.11864e-05
0.00204959
4.97272e-05
0.00204412
4.84056e-05
0.00203876
4.71871e-05
0.00203347
4.60486e-05
0.00202823
4.49732e-05
0.00202302
4.39479e-05
0.00201782
4.29647e-05
0.00201262
4.20164e-05
0.00200741
4.10982e-05
0.00200219
4.02052e-05
0.00199694
3.93342e-05
0.00199166
3.84814e-05
0.00198636
3.7646e-05
0.00198103
3.6825e-05
0.00197567
3.60177e-05
0.00197029
3.52226e-05
0.00196489
3.44391e-05
0.00195947
3.36665e-05
0.00195405
3.29055e-05
0.00194862
3.21556e-05
0.0019432
3.14192e-05
0.00193778
3.0694e-05
0.00193238
2.99829e-05
0.001927
2.92806e-05
0.00192165
2.85957e-05
0.00191633
2.79244e-05
0.00191106
2.72671e-05
0.00190582
2.66223e-05
0.00190064
2.59965e-05
0.00189551
2.5383e-05
0.00189044
2.47865e-05
0.00188542
2.42026e-05
0.00188047
2.36381e-05
0.00187558
2.30855e-05
0.00187076
2.25539e-05
0.00186601
2.20297e-05
0.00186133
2.15313e-05
0.00185672
2.10377e-05
0.00185218
2.05728e-05
0.00184771
2.01065e-05
0.00184332
1.9679e-05
0.00183899
1.9254e-05
0.00183473
1.88651e-05
0.00183054
1.84435e-05
0.00182642
1.80902e-05
0.00182236
1.77085e-05
0.00181837
1.74036e-05
0.00181443
1.7063e-05
0.00181057
1.67666e-05
0.00180676
1.64911e-05
0.00180302
1.62559e-05
0.00179936
1.60951e-05
0.00179573
1.5634e-05
0.00179224
1.53007e-05
0.00178873
1.43399e-05
0.00178557
1.41911e-05
0.00178301
9.59498e-06
0.00178073
3.53324e-06
0.00178056
1.24209e-06
0.00178896
-3.12791e-05
0.0018046
-8.85136e-05
0.00181928
-0.000122365
0.00183183
-0.000124119
0.0018433
-0.000109102
0.00185365
-9.16976e-05
0.00186302
-7.64472e-05
0.00187142
-6.45002e-05
0.00187893
-5.532e-05
0.00188567
-4.75747e-05
0.00189163
-4.13886e-05
0.00189691
-3.59125e-05
0.00190155
-3.13651e-05
0.00190567
-2.73052e-05
0.00190927
-2.39332e-05
0.00191244
-2.08454e-05
0.00191518
-1.83942e-05
0.00191761
-1.61427e-05
0.00191975
-1.42244e-05
0.00192164
-1.2546e-05
0.00192326
-1.13809e-05
0.00192466
-1.02902e-05
0.00192592
-9.11223e-06
0.00192704
-7.63431e-06
0.00192797
-6.94699e-06
0.00192867
-5.79079e-06
0.00192941
-5.25983e-06
-2.35976e-06
0.0021863
0.000160193
0.00218638
0.00016
0.0021805
0.000124916
0.00217264
0.000108796
0.00216442
9.52682e-05
0.00215642
8.40662e-05
0.0021489
7.62858e-05
0.00214191
7.07266e-05
0.00213541
6.64647e-05
0.00212935
6.3122e-05
0.00212367
6.04412e-05
0.00211828
5.82164e-05
0.00211316
5.63143e-05
0.00210823
5.46488e-05
0.00210348
5.31612e-05
0.00209886
5.18107e-05
0.00209434
5.05683e-05
0.0020899
4.94133e-05
0.00208552
4.83291e-05
0.00208118
4.73045e-05
0.00207686
4.63299e-05
0.00207256
4.53979e-05
0.00206827
4.45014e-05
0.00206397
4.3636e-05
0.00205965
4.27963e-05
0.00205532
4.19796e-05
0.00205096
4.1182e-05
0.00204658
4.04016e-05
0.00204216
3.96357e-05
0.00203772
3.88827e-05
0.00203325
3.81405e-05
0.00202874
3.74094e-05
0.00202421
3.66875e-05
0.00201966
3.59768e-05
0.00201508
3.52742e-05
0.00201048
3.45829e-05
0.00200586
3.38974e-05
0.00200123
3.32237e-05
0.0019966
3.25592e-05
0.00199196
3.19044e-05
0.00198733
3.12578e-05
0.0019827
3.0626e-05
0.00197808
3.00007e-05
0.00197348
2.93883e-05
0.0019689
2.87854e-05
0.00196434
2.81986e-05
0.00195981
2.76181e-05
0.00195531
2.70551e-05
0.00195084
2.64969e-05
0.00194641
2.59629e-05
0.00194202
2.54295e-05
0.00193767
2.49235e-05
0.00193336
2.44145e-05
0.0019291
2.39438e-05
0.00192488
2.34731e-05
0.00192072
2.30379e-05
0.00191659
2.25689e-05
0.00191252
2.21689e-05
0.00190849
2.17403e-05
0.00190452
2.13892e-05
0.00190058
2.1005e-05
0.0018967
2.0662e-05
0.00189287
2.0346e-05
0.00188909
2.00638e-05
0.00188537
1.98699e-05
0.00188169
1.93322e-05
0.00187813
1.89148e-05
0.00187453
1.78809e-05
0.00187133
1.74497e-05
0.0018686
1.21927e-05
0.00186586
6.20172e-06
0.00186666
3.97359e-07
0.00187572
-4.05511e-05
0.0018882
-0.000100774
0.00189781
-0.000131845
0.0019056
-0.000131997
0.00191313
-0.000116599
0.00192044
-9.90581e-05
0.00192744
-8.34622e-05
0.00193392
-7.09961e-05
0.00193987
-6.12888e-05
0.00194531
-5.30153e-05
0.0019502
-4.63078e-05
0.0019546
-4.03058e-05
0.0019585
-3.52715e-05
0.00196197
-3.07622e-05
0.00196502
-2.6989e-05
0.00196772
-2.35289e-05
0.00197005
-2.0732e-05
0.00197212
-1.82029e-05
0.00197396
-1.60557e-05
0.00197558
-1.41516e-05
0.00197696
-1.27655e-05
0.00197814
-1.14805e-05
0.0019792
-1.01665e-05
0.00198014
-8.55693e-06
0.00198092
-7.73691e-06
0.0019815
-6.39629e-06
0.00198209
-5.82834e-06
-2.6347e-06
0.00222292
0.000150559
0.00222544
0.000157482
0.00222235
0.000128004
0.00221701
0.000114134
0.00221083
0.000101455
0.00220442
9.04757e-05
0.00219813
8.25757e-05
0.00219212
7.67394e-05
0.00218642
7.2158e-05
0.00218104
6.85018e-05
0.00217595
6.55315e-05
0.00217112
6.30488e-05
0.00216651
6.09224e-05
0.0021621
5.90643e-05
0.00215784
5.74135e-05
0.00215373
5.5926e-05
0.00214973
5.45696e-05
0.00214582
5.33206e-05
0.00214199
5.21606e-05
0.00213822
5.10758e-05
0.00213449
5.0055e-05
0.0021308
4.9089e-05
0.00212714
4.81693e-05
0.00212348
4.72903e-05
0.00211983
4.64453e-05
0.00211618
4.56304e-05
0.00211252
4.48411e-05
0.00210885
4.40746e-05
0.00210516
4.33268e-05
0.00210145
4.25961e-05
0.00209771
4.18792e-05
0.00209394
4.11758e-05
0.00209015
4.0483e-05
0.00208632
3.98021e-05
0.00208247
3.91294e-05
0.00207858
3.84677e-05
0.00207467
3.78119e-05
0.00207073
3.71655e-05
0.00206676
3.65262e-05
0.00206277
3.58957e-05
0.00205876
3.52699e-05
0.00205473
3.46557e-05
0.00205069
3.40454e-05
0.00204663
3.34446e-05
0.00204257
3.28506e-05
0.0020385
3.22695e-05
0.00203443
3.16899e-05
0.00203036
3.11251e-05
0.00202629
3.05629e-05
0.00202223
3.00208e-05
0.00201819
2.94758e-05
0.00201416
2.89564e-05
0.00201014
2.84316e-05
0.00200614
2.79426e-05
0.00200217
2.74509e-05
0.00199822
2.69931e-05
0.00199428
2.64999e-05
0.00199038
2.60737e-05
0.0019865
2.56177e-05
0.00198266
2.52389e-05
0.00197884
2.48273e-05
0.00197506
2.44551e-05
0.0019713
2.41103e-05
0.00196759
2.37957e-05
0.00196391
2.35701e-05
0.00196027
2.29777e-05
0.00195672
2.24891e-05
0.00195313
2.14448e-05
0.00194998
2.06551e-05
0.00194709
1.50504e-05
0.00194413
9.16238e-06
0.00194593
-1.39382e-06
0.00195454
-4.92945e-05
0.00196317
-0.00010929
0.00196831
-0.000136924
0.0019723
-0.000136059
0.00197672
-0.000121003
0.00198155
-0.000103926
0.00198657
-8.85002e-05
0.00199145
-7.58862e-05
0.00199607
-6.59225e-05
0.0020004
-5.73489e-05
0.00200438
-5.03053e-05
0.00200801
-4.39368e-05
0.00201127
-3.8536e-05
0.00201419
-3.36692e-05
0.00201676
-2.9566e-05
0.00201905
-2.58047e-05
0.00202103
-2.27187e-05
0.00202279
-1.99584e-05
0.00202436
-1.76239e-05
0.00202575
-1.5531e-05
0.00202693
-1.39478e-05
0.00202793
-1.24929e-05
0.00202882
-1.10415e-05
0.00202962
-9.32563e-06
0.00203027
-8.41048e-06
0.00203074
-6.89917e-06
0.0020312
-6.25511e-06
-2.81793e-06
0.00225942
0.000140708
0.00226345
0.000153449
0.0022624
0.000129049
0.00225908
0.000117459
0.00225465
0.000105886
0.00224969
9.54313e-05
0.00224459
8.76828e-05
0.00223954
8.17894e-05
0.00223464
7.70581e-05
0.00222992
7.32148e-05
0.00222541
7.00472e-05
0.00222108
6.73729e-05
0.00221694
6.50685e-05
0.00221295
6.30493e-05
0.00220911
6.12552e-05
0.0022054
5.96418e-05
0.00220179
5.81758e-05
0.00219828
5.68324e-05
0.00219485
5.55919e-05
0.00219148
5.44394e-05
0.00218818
5.33623e-05
0.00218491
5.23506e-05
0.00218169
5.13948e-05
0.00217849
5.04885e-05
0.00217531
4.9624e-05
0.00217215
4.87967e-05
0.00216899
4.80016e-05
0.00216583
4.72349e-05
0.00216266
4.64921e-05
0.00215949
4.57712e-05
0.0021563
4.50682e-05
0.00215309
4.43823e-05
0.00214986
4.37101e-05
0.00214661
4.30525e-05
0.00214334
4.24049e-05
0.00214004
4.17696e-05
0.00213671
4.11422e-05
0.00213335
4.05245e-05
0.00212996
3.99136e-05
0.00212655
3.93123e-05
0.0021231
3.87148e-05
0.00211963
3.81273e-05
0.00211613
3.75435e-05
0.00211261
3.69677e-05
0.00210907
3.63962e-05
0.0021055
3.5836e-05
0.00210192
3.52755e-05
0.00209832
3.47273e-05
0.0020947
3.41799e-05
0.00209107
3.36493e-05
0.00208743
3.31131e-05
0.00208379
3.26016e-05
0.00208014
3.20821e-05
0.00207649
3.15955e-05
0.00207284
3.11048e-05
0.00206919
3.06451e-05
0.00206554
3.01492e-05
0.00206191
2.97168e-05
0.00205827
2.92556e-05
0.00205465
2.88682e-05
0.00205104
2.84511e-05
0.00204744
2.80671e-05
0.00204385
2.77135e-05
0.00204029
2.7384e-05
0.00203675
2.71481e-05
0.00203324
2.65108e-05
0.00202979
2.59733e-05
0.0020263
2.48926e-05
0.00202325
2.37406e-05
0.00202024
1.79684e-05
0.00201734
1.20063e-05
0.00201982
-3.91033e-06
0.00202699
-5.65808e-05
0.00203159
-0.000113763
0.00203298
-0.000138242
0.002034
-0.000137125
0.00203598
-0.00012297
0.00203881
-0.000106784
0.00204219
-9.18945e-05
0.00204573
-7.94292e-05
0.00204922
-6.94286e-05
0.0020526
-6.0738e-05
0.0020558
-5.35121e-05
0.00205877
-4.69076e-05
0.00206147
-4.12396e-05
0.00206391
-3.60964e-05
0.00206607
-3.1728e-05
0.00206799
-2.77274e-05
0.00206968
-2.44019e-05
0.00207117
-2.14476e-05
0.00207251
-1.89597e-05
0.0020737
-1.67086e-05
0.0020747
-1.49547e-05
0.00207555
-1.33428e-05
0.0020763
-1.17893e-05
0.00207697
-9.98837e-06
0.00207751
-8.9569e-06
0.00207788
-7.28892e-06
0.00207825
-6.61122e-06
-2.97476e-06
0.00229611
0.000131031
0.00230104
0.00014852
0.00230146
0.00012863
0.00229971
0.000119207
0.00229675
0.000108847
0.00229309
9.90957e-05
0.00228908
9.16885e-05
0.00228496
8.59105e-05
0.00228084
8.1175e-05
0.0022768
7.7262e-05
0.00227285
7.39896e-05
0.00226903
7.11954e-05
0.00226533
6.87677e-05
0.00226175
6.66286e-05
0.00225829
6.47216e-05
0.00225493
6.3004e-05
0.00225166
6.14435e-05
0.00224848
6.00152e-05
0.00224537
5.86993e-05
0.00224233
5.74806e-05
0.00223934
5.63459e-05
0.00223641
5.52849e-05
0.00223352
5.42874e-05
0.00223066
5.33465e-05
0.00222783
5.24541e-05
0.00222502
5.16053e-05
0.00222223
5.07943e-05
0.00221945
5.00171e-05
0.00221667
4.92689e-05
0.00221389
4.8547e-05
0.00221112
4.78472e-05
0.00220833
4.71684e-05
0.00220553
4.65069e-05
0.00220272
4.58628e-05
0.0021999
4.52319e-05
0.00219705
4.46154e-05
0.00219418
4.40093e-05
0.00219129
4.34148e-05
0.00218838
4.2828e-05
0.00218544
4.22526e-05
0.00218247
4.16818e-05
0.00217948
4.11209e-05
0.00217646
4.05645e-05
0.00217341
4.00165e-05
0.00217034
3.94715e-05
0.00216724
3.89373e-05
0.00216411
3.84035e-05
0.00216096
3.78801e-05
0.00215778
3.73563e-05
0.00215459
3.68478e-05
0.00215137
3.63327e-05
0.00214813
3.58409e-05
0.00214487
3.53402e-05
0.0021416
3.4869e-05
0.00213831
3.43936e-05
0.00213501
3.39469e-05
0.0021317
3.34631e-05
0.00212838
3.30396e-05
0.00212504
3.25881e-05
0.00212171
3.22064e-05
0.00211836
3.17972e-05
0.00211502
3.14169e-05
0.00211167
3.10667e-05
0.00210833
3.07365e-05
0.00210501
3.04928e-05
0.00210168
2.98366e-05
0.0020984
2.92725e-05
0.00209509
2.81907e-05
0.00209219
2.66746e-05
0.00208913
2.10282e-05
0.00208651
1.46418e-05
0.00208919
-6.58214e-06
0.00209415
-6.15953e-05
0.002095
-0.000114565
0.00209339
-0.000136603
0.0020921
-0.000135881
0.00209217
-0.00012304
0.00209338
-0.00010801
0.00209539
-9.39149e-05
0.00209779
-8.1836e-05
0.00210032
-7.19768e-05
0.0021029
-6.33198e-05
0.00210542
-5.60358e-05
0.00210781
-4.93037e-05
0.00211002
-4.34534e-05
0.00211204
-3.81066e-05
0.00211384
-3.35331e-05
0.00211547
-2.93461e-05
0.00211689
-2.58248e-05
0.00211815
-2.27078e-05
0.00211929
-2.00933e-05
0.0021203
-1.7713e-05
0.00212115
-1.58103e-05
0.00212186
-1.40624e-05
0.00212249
-1.24015e-05
0.00212305
-1.05298e-05
0.00212349
-9.41773e-06
0.00212378
-7.61074e-06
0.00212407
-6.85849e-06
-3.05337e-06
0.0023332
0.000121736
0.00233861
0.000143113
0.00234005
0.000127187
0.00233951
0.000119748
0.00233775
0.000110607
0.0023352
0.000101647
0.00233219
9.46995e-05
0.00232894
8.91612e-05
0.00232558
8.45361e-05
0.00232219
8.06533e-05
0.00231882
7.73602e-05
0.0023155
7.45152e-05
0.00231225
7.20205e-05
0.00230907
6.98064e-05
0.00230597
6.7822e-05
0.00230294
6.60282e-05
0.00229999
6.43947e-05
0.00229711
6.28978e-05
0.00229429
6.15185e-05
0.00229153
6.02419e-05
0.00228882
5.90549e-05
0.00228616
5.79471e-05
0.00228354
5.69085e-05
0.00228095
5.59317e-05
0.0022784
5.50086e-05
0.00227587
5.4134e-05
0.00227336
5.33019e-05
0.00227087
5.25082e-05
0.00226839
5.17476e-05
0.00226592
5.10175e-05
0.00226346
5.03131e-05
0.00226099
4.96334e-05
0.00225852
4.89742e-05
0.00225605
4.83356e-05
0.00225357
4.7713e-05
0.00225108
4.71073e-05
0.00224857
4.65146e-05
0.00224605
4.59359e-05
0.00224352
4.53666e-05
0.00224096
4.48106e-05
0.00223838
4.42611e-05
0.00223578
4.37224e-05
0.00223315
4.31892e-05
0.00223051
4.2666e-05
0.00222783
4.21461e-05
0.00222513
4.16368e-05
0.00222241
4.11294e-05
0.00221966
4.06322e-05
0.00221688
4.0134e-05
0.00221408
3.96512e-05
0.00221125
3.91619e-05
0.0022084
3.86948e-05
0.00220552
3.82188e-05
0.00220262
3.77709e-05
0.00219969
3.7319e-05
0.00219675
3.68942e-05
0.00219378
3.64326e-05
0.0021908
3.60282e-05
0.00218779
3.55987e-05
0.00218477
3.52343e-05
0.00218173
3.48468e-05
0.00217868
3.44828e-05
0.00217561
3.41507e-05
0.00217254
3.38324e-05
0.00216946
3.35983e-05
0.00216638
3.29342e-05
0.00216332
3.236e-05
0.00216024
3.12358e-05
0.00215751
2.94207e-05
0.00215449
2.3993e-05
0.00215229
1.67888e-05
0.00215465
-8.96389e-06
0.00215699
-6.3996e-05
0.00215464
-0.000112145
0.00215068
-0.000132596
0.00214761
-0.000132834
0.00214617
-0.00012159
0.00214605
-0.000107914
0.00214691
-9.47828e-05
0.00214834
-8.32697e-05
0.00215006
-7.37063e-05
0.00215194
-6.52047e-05
0.00215386
-5.79661e-05
0.00215575
-5.11954e-05
0.00215753
-4.52354e-05
0.00215918
-3.97502e-05
0.00216067
-3.50267e-05
0.00216203
-3.06966e-05
0.00216322
-2.70177e-05
0.00216428
-2.37647e-05
0.00216524
-2.10445e-05
0.00216609
-1.85582e-05
0.00216681
-1.65287e-05
0.0021674
-1.46566e-05
0.00216792
-1.29202e-05
0.00216839
-1.09906e-05
0.00216874
-9.77548e-06
0.00216896
-7.8474e-06
0.00216917
-7.06246e-06
-3.11725e-06
0.0023708
0.00011293
0.00237642
0.000137498
0.00237855
0.000125051
0.00237892
0.000119385
0.00237811
0.000111413
0.00237649
0.000103264
0.00237436
9.68382e-05
0.0023719
9.16196e-05
0.00236925
8.71879e-05
0.00236649
8.34138e-05
0.00236368
8.01705e-05
0.00236085
7.73362e-05
0.00235805
7.48268e-05
0.00235527
7.25821e-05
0.00235254
7.05573e-05
0.00234985
6.87176e-05
0.00234721
6.7036e-05
0.00234461
6.54907e-05
0.00234207
6.40641e-05
0.00233957
6.27423e-05
0.00233711
6.15128e-05
0.00233469
6.03656e-05
0.00233231
5.92908e-05
0.00232996
5.82813e-05
0.00232764
5.7329e-05
0.00232535
5.64288e-05
0.00232307
5.55745e-05
0.00232082
5.4762e-05
0.00231858
5.3986e-05
0.00231636
5.32436e-05
0.00231414
5.25302e-05
0.00231193
5.18443e-05
0.00230972
5.1182e-05
0.00230751
5.05428e-05
0.00230531
4.99224e-05
0.00230309
4.93211e-05
0.00230087
4.87352e-05
0.00229864
4.81656e-05
0.0022964
4.76075e-05
0.00229415
4.70644e-05
0.00229188
4.65299e-05
0.0022896
4.60076e-05
0.00228729
4.54924e-05
0.00228497
4.49886e-05
0.00228263
4.44895e-05
0.00228026
4.40013e-05
0.00227788
4.35166e-05
0.00227547
4.30428e-05
0.00227303
4.25687e-05
0.00227058
4.21099e-05
0.00226809
4.16462e-05
0.00226558
4.12037e-05
0.00226305
4.07534e-05
0.00226049
4.03305e-05
0.00225791
3.99045e-05
0.0022553
3.95039e-05
0.00225266
3.90682e-05
0.00225001
3.86871e-05
0.00224732
3.82839e-05
0.00224462
3.79419e-05
0.00224188
3.75798e-05
0.00223913
3.72387e-05
0.00223636
3.69295e-05
0.00223357
3.66288e-05
0.00223077
3.64031e-05
0.00222796
3.57542e-05
0.00222514
3.51825e-05
0.00222233
3.40404e-05
0.00221978
3.19931e-05
0.00221688
2.69125e-05
0.00221515
1.8549e-05
0.00221674
-1.05346e-05
0.00221639
-6.36644e-05
0.00221148
-0.000107213
0.00220572
-0.000126835
0.00220125
-0.000128393
0.00219859
-0.000118934
0.00219739
-0.000106725
0.00219728
-9.46784e-05
0.00219787
-8.3865e-05
0.00219887
-7.4722e-05
0.00220015
-6.64824e-05
0.00220155
-5.93736e-05
0.00220299
-5.26418e-05
0.00220439
-4.66383e-05
0.00220572
-4.10733e-05
0.00220694
-3.62474e-05
0.00220806
-3.18121e-05
0.00220905
-2.80091e-05
0.00220993
-2.4646e-05
0.00221073
-2.18372e-05
0.00221144
-1.92645e-05
0.00221203
-1.71266e-05
0.00221252
-1.51492e-05
0.00221294
-1.33303e-05
0.00221332
-1.13509e-05
0.0022136
-1.00689e-05
0.00221376
-8.03764e-06
0.00221391
-7.17947e-06
-3.11462e-06
0.00240899
0.000104654
0.00241463
0.000131851
0.00241722
0.000122464
0.00241824
0.000118365
0.00241818
0.000111478
0.00241732
0.000104118
0.00241593
9.82327e-05
0.00241417
9.33769e-05
0.00241217
8.91925e-05
0.00241
8.55834e-05
0.00240772
8.24446e-05
0.00240539
7.96716e-05
0.00240302
7.71932e-05
0.00240065
7.4958e-05
0.00239828
7.29276e-05
0.00239592
7.10722e-05
0.00239359
6.93681e-05
0.00239128
6.77961e-05
0.00238901
6.63405e-05
0.00238676
6.49888e-05
0.00238454
6.37293e-05
0.00238236
6.25528e-05
0.0023802
6.14502e-05
0.00237807
6.04143e-05
0.00237596
5.94377e-05
0.00237387
5.85151e-05
0.0023718
5.76408e-05
0.00236976
5.68104e-05
0.00236772
5.6019e-05
0.0023657
5.52634e-05
0.0023637
5.45393e-05
0.00236169
5.3845e-05
0.0023597
5.31765e-05
0.00235771
5.25332e-05
0.00235572
5.19111e-05
0.00235373
5.131e-05
0.00235174
5.07263e-05
0.00234975
5.01609e-05
0.00234775
4.96089e-05
0.00234574
4.90735e-05
0.00234372
4.85486e-05
0.00234169
4.80376e-05
0.00233965
4.75351e-05
0.00233759
4.70455e-05
0.00233552
4.65622e-05
0.00233343
4.60906e-05
0.00233132
4.56238e-05
0.0023292
4.51693e-05
0.00232705
4.47154e-05
0.00232489
4.42774e-05
0.0023227
4.38361e-05
0.00232048
4.34162e-05
0.00231825
4.29897e-05
0.00231599
4.25905e-05
0.00231371
4.219e-05
0.0023114
4.18135e-05
0.00230907
4.14046e-05
0.00230671
4.10488e-05
0.00230432
4.06749e-05
0.00230191
4.03581e-05
0.00229947
4.0026e-05
0.00229701
3.9712e-05
0.00229452
3.94319e-05
0.00229202
3.91545e-05
0.0022895
3.89467e-05
0.00228695
3.83175e-05
0.0022844
3.77486e-05
0.00228186
3.65533e-05
0.0022795
3.43663e-05
0.0022768
2.95688e-05
0.00227545
1.98647e-05
0.002276
-1.1102e-05
0.00227316
-6.08555e-05
0.00226627
-0.000100272
0.00225915
-0.00011969
0.00225358
-0.000122839
0.00224993
-0.000115275
0.00224781
-0.000104623
0.00224687
-9.37455e-05
0.00224673
-8.37318e-05
0.00224711
-7.51119e-05
0.00224785
-6.72217e-05
0.00224879
-6.03173e-05
0.00224984
-5.36921e-05
0.0022509
-4.77039e-05
0.00225194
-4.21093e-05
0.00225292
-3.72229e-05
0.00225382
-3.27151e-05
0.00225463
-2.88178e-05
0.00225536
-2.53679e-05
0.00225601
-2.24854e-05
0.00225659
-1.98409e-05
0.00225708
-1.76125e-05
0.00225747
-1.55408e-05
0.0022578
-1.36676e-05
0.00225811
-1.16482e-05
0.00225831
-1.02794e-05
0.00225843
-8.1601e-06
0.00225852
-7.269e-06
-3.10579e-06
0.00244779
9.69172e-05
0.00245337
0.000126278
0.00245623
0.000119597
0.00245772
0.000116877
0.00245822
0.000110983
0.00245797
0.000104365
0.00245719
9.90089e-05
0.00245604
9.45303e-05
0.00245461
9.06218e-05
0.00245298
8.72138e-05
0.00245121
8.42183e-05
0.00244933
8.15453e-05
0.00244739
7.91346e-05
0.00244541
7.6943e-05
0.0024434
7.49379e-05
0.00244138
7.30943e-05
0.00243935
7.13921e-05
0.00243733
6.98149e-05
0.00243532
6.83489e-05
0.00243333
6.69834e-05
0.00243135
6.57079e-05
0.00242939
6.4514e-05
0.00242745
6.33935e-05
0.00242552
6.23397e-05
0.00242361
6.13457e-05
0.00242172
6.04064e-05
0.00241985
5.95164e-05
0.00241799
5.86716e-05
0.00241614
5.78671e-05
0.0024143
5.70999e-05
0.00241248
5.63657e-05
0.00241066
5.56628e-05
0.00240885
5.49875e-05
0.00240704
5.4339e-05
0.00240524
5.37132e-05
0.00240344
5.31101e-05
0.00240164
5.2526e-05
0.00239984
5.19617e-05
0.00239804
5.14125e-05
0.00239623
5.08812e-05
0.00239442
5.03621e-05
0.0023926
4.98581e-05
0.00239077
4.93642e-05
0.00238893
4.88844e-05
0.00238708
4.84125e-05
0.00238522
4.79533e-05
0.00238334
4.75003e-05
0.00238145
4.70606e-05
0.00237954
4.6623e-05
0.00237762
4.62017e-05
0.00237568
4.57791e-05
0.00237372
4.5378e-05
0.00237174
4.49722e-05
0.00236973
4.45932e-05
0.00236771
4.4215e-05
0.00236567
4.386e-05
0.00236359
4.34757e-05
0.0023615
4.31425e-05
0.00235938
4.27957e-05
0.00235724
4.25022e-05
0.00235507
4.21976e-05
0.00235287
4.191e-05
0.00235065
4.1657e-05
0.00234841
4.14023e-05
0.00234615
4.12067e-05
0.00234386
4.06097e-05
0.00234156
4.00494e-05
0.00233929
3.88303e-05
0.0023371
3.65718e-05
0.00233466
3.2039e-05