/*--------------------------------*- C++ -*----------------------------------*\
| =========                 |                                                 |
| \\      /  F ield         | OpenFOAM: The Open Source CFD Toolbox           |
|  \\    /   O peration     | Version:  3.0.0                                 |
|   \\  /    A nd           | Web:      www.OpenFOAM.org                      |
|    \\/     M anipulation  |                                                 |
\*---------------------------------------------------------------------------*/
FoamFile
{
    version     2.0;
    format      ascii;
    class       volVectorField;
    location    "200";
    object      U;
}
// * * * * * * * * * * * * * * * * * * * * * * * * * * * * * * * * * * * * * //

dimensions      [0 1 -1 0 0 0 0];

internalField   nonuniform List<vector> 
10000
(
(0.945473 -0.0620014 0)
(0.9013 -0.0254992 0)
(0.875736 -0.00573625 0)
(0.857599 -0.000443713 0)
(0.843352 0.000348815 0)
(0.830835 0.000311481 0)
(0.819224 0.000268237 0)
(0.808239 0.000281036 0)
(0.797745 0.000308069 0)
(0.78769 0.000328494 0)
(0.778069 0.000338359 0)
(0.768887 0.000339156 0)
(0.760138 0.000333212 0)
(0.751825 0.000322582 0)
(0.743944 0.000308998 0)
(0.736488 0.000293816 0)
(0.729441 0.000277967 0)
(0.722784 0.000262073 0)
(0.716499 0.000246556 0)
(0.710564 0.00023173 0)
(0.704958 0.000217777 0)
(0.699657 0.000204772 0)
(0.694641 0.000192722 0)
(0.68989 0.00018161 0)
(0.685384 0.000171385 0)
(0.681105 0.000161983 0)
(0.677038 0.000153342 0)
(0.673167 0.00014541 0)
(0.669478 0.000138118 0)
(0.665957 0.000131383 0)
(0.662595 0.000125143 0)
(0.659379 0.000119357 0)
(0.656302 0.000113979 0)
(0.653353 0.000109007 0)
(0.650525 0.000104374 0)
(0.647809 0.000100072 0)
(0.645199 9.60603e-05 0)
(0.642687 9.23137e-05 0)
(0.640269 8.88003e-05 0)
(0.637939 8.5534e-05 0)
(0.63569 8.24604e-05 0)
(0.633519 7.95763e-05 0)
(0.631422 7.68552e-05 0)
(0.629393 7.43083e-05 0)
(0.62743 7.18899e-05 0)
(0.625528 6.96198e-05 0)
(0.623685 6.74574e-05 0)
(0.621898 6.54352e-05 0)
(0.620163 6.34932e-05 0)
(0.618477 6.16845e-05 0)
(0.61684 5.99217e-05 0)
(0.615246 5.83236e-05 0)
(0.613696 5.67147e-05 0)
(0.612185 5.53268e-05 0)
(0.610714 5.39696e-05 0)
(0.609279 5.2845e-05 0)
(0.607879 5.14056e-05 0)
(0.60651 5.03487e-05 0)
(0.605175 4.91509e-05 0)
(0.603866 4.85554e-05 0)
(0.602588 4.76484e-05 0)
(0.601333 4.70637e-05 0)
(0.600105 4.65917e-05 0)
(0.598895 4.70869e-05 0)
(0.59771 4.82692e-05 0)
(0.59656 4.79749e-05 0)
(0.595425 4.9376e-05 0)
(0.59438 4.52536e-05 0)
(0.593359 4.57605e-05 0)
(0.592586 2.95567e-05 0)
(0.592596 3.36282e-06 0)
(0.593229 -2.32134e-05 0)
(0.592012 -0.000270526 0)
(0.597466 -0.000466375 0)
(0.612352 -0.000494502 0)
(0.630802 -0.000538265 0)
(0.648124 -0.000562901 0)
(0.662505 -0.000552848 0)
(0.673865 -0.000509647 0)
(0.682923 -0.000454291 0)
(0.690345 -0.000394615 0)
(0.696579 -0.000335225 0)
(0.701796 -0.000286445 0)
(0.706323 -0.000244319 0)
(0.710285 -0.000209722 0)
(0.71376 -0.000178816 0)
(0.716755 -0.000154922 0)
(0.719348 -0.000135225 0)
(0.721658 -0.000118031 0)
(0.723725 -0.000101197 0)
(0.725531 -8.94779e-05 0)
(0.727121 -8.03206e-05 0)
(0.728617 -7.63157e-05 0)
(0.730002 -7.06083e-05 0)
(0.73133 -6.04472e-05 0)
(0.732468 -4.96302e-05 0)
(0.733443 -4.63138e-05 0)
(0.734239 -3.98893e-05 0)
(0.734896 -3.69695e-05 0)
(0.735708 -1.89532e-05 0)
(0.993362 0.0135315 0)
(0.977094 0.00921693 0)
(0.958096 0.00368162 0)
(0.943624 0.0018218 0)
(0.93299 0.00134684 0)
(0.92413 0.00118494 0)
(0.916283 0.00110478 0)
(0.909114 0.00104775 0)
(0.902349 0.000996787 0)
(0.895827 0.000950945 0)
(0.889461 0.000909655 0)
(0.883203 0.000871093 0)
(0.877033 0.000834034 0)
(0.870944 0.000797946 0)
(0.864935 0.000762692 0)
(0.85901 0.000728305 0)
(0.853179 0.00069484 0)
(0.847455 0.000662365 0)
(0.84185 0.000631002 0)
(0.836373 0.000600903 0)
(0.831032 0.000572163 0)
(0.825835 0.00054482 0)
(0.820786 0.000518878 0)
(0.815889 0.000494345 0)
(0.811146 0.000471181 0)
(0.806556 0.000449357 0)
(0.802118 0.000428817 0)
(0.79783 0.00040951 0)
(0.793689 0.000391366 0)
(0.789692 0.000374327 0)
(0.785835 0.000358299 0)
(0.782112 0.000343243 0)
(0.778519 0.000329072 0)
(0.77505 0.000315798 0)
(0.771702 0.000303284 0)
(0.768468 0.00029154 0)
(0.765344 0.000280485 0)
(0.762326 0.000270076 0)
(0.759408 0.000260245 0)
(0.756586 0.000251029 0)
(0.753855 0.000242303 0)
(0.751212 0.000234076 0)
(0.748653 0.000226275 0)
(0.746172 0.000218933 0)
(0.743768 0.000211944 0)
(0.741436 0.000205355 0)
(0.739172 0.000199064 0)
(0.736975 0.000193149 0)
(0.734841 0.000187474 0)
(0.732766 0.000182157 0)
(0.730748 0.000176995 0)
(0.728786 0.00017226 0)
(0.726874 0.000167556 0)
(0.725013 0.000163359 0)
(0.723199 0.000159239 0)
(0.721432 0.000155632 0)
(0.719706 0.000151514 0)
(0.718022 0.00014832 0)
(0.716376 0.000144663 0)
(0.714768 0.000142212 0)
(0.713195 0.000139029 0)
(0.711656 0.000136786 0)
(0.71015 0.000134142 0)
(0.708672 0.000133128 0)
(0.707233 0.000132046 0)
(0.705813 0.000127636 0)
(0.704415 0.000125004 0)
(0.703064 0.000111673 0)
(0.701754 0.000114326 0)
(0.700362 6.46971e-05 0)
(0.699983 -3.46881e-05 0)
(0.700104 1.21342e-05 0)
(0.699111 -0.000133738 0)
(0.705089 -0.000871361 0)
(0.718876 -0.00166688 0)
(0.734696 -0.00189075 0)
(0.749302 -0.00167776 0)
(0.761545 -0.00136755 0)
(0.771539 -0.00108892 0)
(0.779824 -0.000878776 0)
(0.786806 -0.000730059 0)
(0.79274 -0.000611928 0)
(0.797826 -0.000523943 0)
(0.802228 -0.000452016 0)
(0.806056 -0.000394401 0)
(0.809391 -0.000341048 0)
(0.812309 -0.000297711 0)
(0.814826 -0.000259315 0)
(0.81705 -0.000231388 0)
(0.819032 -0.000203783 0)
(0.820752 -0.000179339 0)
(0.822255 -0.000158989 0)
(0.823637 -0.000149212 0)
(0.82486 -0.000140424 0)
(0.826003 -0.000126364 0)
(0.826989 -0.000103542 0)
(0.827838 -9.5553e-05 0)
(0.828542 -8.17366e-05 0)
(0.829117 -7.33484e-05 0)
(0.829838 -3.16462e-05 0)
(0.998648 0.00953211 0)
(0.993045 0.00609203 0)
(0.981645 0.00309537 0)
(0.971148 0.00225874 0)
(0.96286 0.00189293 0)
(0.955873 0.00164389 0)
(0.949767 0.00149498 0)
(0.944326 0.00140184 0)
(0.939332 0.00133335 0)
(0.934629 0.00127925 0)
(0.930121 0.00123413 0)
(0.925743 0.00119393 0)
(0.921447 0.00115626 0)
(0.917203 0.00111983 0)
(0.912989 0.00108414 0)
(0.908794 0.00104907 0)
(0.90461 0.00101451 0)
(0.900436 0.000980378 0)
(0.896272 0.000946742 0)
(0.892119 0.000913727 0)
(0.887983 0.000881395 0)
(0.88387 0.000849813 0)
(0.879788 0.000819053 0)
(0.875742 0.000789189 0)
(0.871741 0.000760243 0)
(0.867791 0.000732262 0)
(0.863898 0.000705267 0)
(0.860067 0.000679287 0)
(0.856303 0.000654307 0)
(0.852611 0.000630313 0)
(0.848994 0.000607289 0)
(0.845453 0.000585251 0)
(0.841991 0.000564166 0)
(0.838609 0.000544084 0)
(0.835307 0.000524858 0)
(0.832086 0.00050657 0)
(0.828945 0.00048911 0)
(0.825884 0.000472499 0)
(0.822901 0.000456652 0)
(0.819995 0.000441635 0)
(0.817164 0.000427274 0)
(0.814407 0.000413634 0)
(0.811723 0.000400602 0)
(0.809108 0.000388256 0)
(0.806561 0.000376414 0)
(0.80408 0.000365207 0)
(0.801663 0.000354437 0)
(0.799308 0.00034429 0)
(0.797013 0.000334469 0)
(0.794775 0.000325265 0)
(0.792593 0.000316266 0)
(0.790464 0.000308003 0)
(0.788387 0.000299741 0)
(0.78636 0.000292344 0)
(0.78438 0.000285029 0)
(0.782448 0.000278587 0)
(0.780559 0.000271324 0)
(0.778711 0.000265605 0)
(0.776904 0.000259155 0)
(0.775135 0.000254553 0)
(0.773405 0.000248901 0)
(0.771709 0.000244401 0)
(0.770049 0.000239959 0)
(0.768417 0.000237096 0)
(0.766829 0.000235431 0)
(0.765264 0.000227603 0)
(0.763731 0.000223482 0)
(0.762266 0.000201938 0)
(0.760808 0.000207961 0)
(0.759426 0.0001277 0)
(0.758933 -2.52791e-05 0)
(0.758407 -3.99918e-06 0)
(0.757582 -0.000400452 0)
(0.763902 -0.00152649 0)
(0.775889 -0.00250383 0)
(0.788483 -0.00271062 0)
(0.799813 -0.00239739 0)
(0.809447 -0.00197954 0)
(0.817474 -0.00160941 0)
(0.824314 -0.00132619 0)
(0.830191 -0.00111742 0)
(0.835255 -0.000945757 0)
(0.83966 -0.00081534 0)
(0.843475 -0.000704404 0)
(0.846792 -0.000614012 0)
(0.849684 -0.000531808 0)
(0.85224 -0.000465047 0)
(0.85444 -0.000404989 0)
(0.85637 -0.000359401 0)
(0.858073 -0.000315529 0)
(0.85957 -0.000278205 0)
(0.86087 -0.000246374 0)
(0.862046 -0.000228539 0)
(0.863058 -0.000210804 0)
(0.863985 -0.000187257 0)
(0.8648 -0.000154744 0)
(0.865502 -0.000142441 0)
(0.866085 -0.000120973 0)
(0.866544 -0.000109775 0)
(0.867134 -4.80295e-05 0)
(1.00062 0.00627972 0)
(1.00001 0.00496367 0)
(0.993124 0.00336026 0)
(0.985503 0.00277528 0)
(0.978969 0.00235551 0)
(0.973208 0.0020376 0)
(0.968094 0.00184132 0)
(0.963548 0.00171571 0)
(0.959424 0.00162457 0)
(0.955606 0.00155476 0)
(0.952014 0.00149888 0)
(0.948588 0.00145135 0)
(0.94528 0.00140881 0)
(0.942055 0.00136947 0)
(0.938885 0.00133231 0)
(0.935753 0.00129668 0)
(0.932642 0.00126212 0)
(0.929541 0.00122835 0)
(0.926442 0.00119523 0)
(0.923339 0.00116275 0)
(0.92023 0.00113084 0)
(0.917113 0.00109948 0)
(0.913987 0.00106864 0)
(0.910853 0.00103834 0)
(0.907714 0.00100856 0)
(0.904574 0.000979344 0)
(0.901435 0.000950706 0)
(0.898302 0.000922674 0)
(0.895179 0.000895248 0)
(0.89207 0.000868463 0)
(0.88898 0.000842337 0)
(0.885913 0.000816916 0)
(0.882874 0.000792195 0)
(0.879865 0.000768282 0)
(0.876892 0.000745063 0)
(0.873955 0.00072262 0)
(0.871059 0.000700856 0)
(0.868206 0.000679929 0)
(0.865397 0.000659733 0)
(0.862635 0.00064033 0)
(0.85992 0.000621562 0)
(0.857254 0.000603576 0)
(0.854637 0.000586226 0)
(0.852069 0.00056963 0)
(0.849551 0.00055358 0)
(0.847082 0.000538258 0)
(0.844663 0.000523451 0)
(0.842292 0.000509413 0)
(0.83997 0.000495719 0)
(0.837695 0.00048281 0)
(0.835467 0.000470152 0)
(0.833284 0.000458418 0)
(0.831146 0.000446686 0)
(0.829052 0.00043607 0)
(0.827 0.000425579 0)
(0.824991 0.000416176 0)
(0.823022 0.000405815 0)
(0.82109 0.000397397 0)
(0.819197 0.00038815 0)
(0.817339 0.000381133 0)
(0.815518 0.000372974 0)
(0.813731 0.000366115 0)
(0.811976 0.000359653 0)
(0.810251 0.00035467 0)
(0.808567 0.000351547 0)
(0.806909 0.000340255 0)
(0.805286 0.000333261 0)
(0.80373 0.000305497 0)
(0.802164 0.000309158 0)
(0.800775 0.000195919 0)
(0.800156 7.62071e-06 0)
(0.799051 1.25754e-05 0)
(0.798932 -0.000627457 0)
(0.806028 -0.00215216 0)
(0.815816 -0.00328212 0)
(0.825057 -0.00343878 0)
(0.833217 -0.00301941 0)
(0.840406 -0.00250523 0)
(0.846564 -0.00205668 0)
(0.851961 -0.00171169 0)
(0.856678 -0.0014529 0)
(0.860825 -0.00123798 0)
(0.864471 -0.00107112 0)
(0.867652 -0.000926334 0)
(0.870431 -0.000807509 0)
(0.872869 -0.000700796 0)
(0.875023 -0.000613435 0)
(0.876897 -0.000534131 0)
(0.878529 -0.000472811 0)
(0.879961 -0.000414781 0)
(0.881226 -0.000365276 0)
(0.88233 -0.00032283 0)
(0.883314 -0.000296256 0)
(0.884149 -0.000270517 0)
(0.884903 -0.000240025 0)
(0.885572 -0.000199643 0)
(0.886153 -0.000182696 0)
(0.886628 -0.000154037 0)
(0.886992 -0.000140266 0)
(0.887464 -6.22618e-05 0)
(1.0015 0.00551712 0)
(1.00351 0.00513862 0)
(0.999537 0.00380597 0)
(0.994129 0.00320757 0)
(0.989102 0.00274519 0)
(0.984397 0.00238759 0)
(0.980074 0.00215555 0)
(0.976169 0.00199958 0)
(0.97261 0.00188423 0)
(0.969323 0.00179569 0)
(0.966255 0.00172549 0)
(0.963358 0.00166712 0)
(0.960595 0.00161655 0)
(0.957935 0.00157137 0)
(0.955353 0.00153001 0)
(0.952828 0.00149145 0)
(0.950345 0.00145503 0)
(0.94789 0.00142027 0)
(0.945453 0.00138684 0)
(0.943026 0.00135453 0)
(0.940601 0.00132313 0)
(0.938174 0.0012925 0)
(0.935739 0.00126254 0)
(0.933295 0.00123319 0)
(0.930839 0.00120436 0)
(0.928371 0.00117602 0)
(0.925888 0.00114812 0)
(0.923394 0.00112066 0)
(0.920887 0.00109359 0)
(0.918371 0.00106694 0)
(0.915846 0.00104069 0)
(0.913316 0.00101489 0)
(0.910782 0.000989517 0)
(0.908249 0.00096468 0)
(0.905718 0.000940272 0)
(0.903193 0.000916454 0)
(0.900676 0.000893034 0)
(0.898172 0.000870242 0)
(0.895681 0.000848011 0)
(0.893208 0.000826375 0)
(0.890755 0.00080523 0)
(0.888324 0.00078478 0)
(0.885916 0.00076483 0)
(0.883534 0.000745537 0)
(0.881179 0.000726722 0)
(0.878853 0.000708614 0)
(0.876557 0.000690951 0)
(0.874292 0.000674043 0)
(0.872059 0.000657448 0)
(0.869858 0.00064171 0)
(0.867689 0.000626176 0)
(0.865554 0.000611626 0)
(0.863451 0.000597059 0)
(0.861382 0.000583754 0)
(0.859345 0.000570568 0)
(0.857342 0.000558573 0)
(0.85537 0.00054554 0)
(0.85343 0.000534697 0)
(0.851521 0.000522973 0)
(0.849642 0.000513712 0)
(0.847794 0.000503304 0)
(0.845975 0.00049428 0)
(0.844184 0.000485946 0)
(0.842421 0.000478961 0)
(0.840693 0.0004744 0)
(0.838991 0.00046019 0)
(0.837323 0.000450305 0)
(0.835713 0.000418883 0)
(0.83408 0.000417443 0)
(0.832712 0.000275135 0)
(0.831935 7.25036e-05 0)
(0.830394 2.65679e-05 0)
(0.831383 -0.00089911 0)
(0.838645 -0.00271472 0)
(0.846032 -0.00386886 0)
(0.852281 -0.00396018 0)
(0.857781 -0.00347615 0)
(0.862892 -0.00290784 0)
(0.867485 -0.00241186 0)
(0.871629 -0.00202569 0)
(0.87533 -0.00173127 0)
(0.878651 -0.00148426 0)
(0.881611 -0.00128883 0)
(0.884226 -0.00111683 0)
(0.88653 -0.000974605 0)
(0.888566 -0.000847615 0)
(0.89036 -0.000742555 0)
(0.89194 -0.000646663 0)
(0.89331 -0.000571075 0)
(0.89451 -0.000501071 0)
(0.895573 -0.000441446 0)
(0.896507 -0.000389516 0)
(0.897331 -0.000354501 0)
(0.898025 -0.000321396 0)
(0.898644 -0.000284864 0)
(0.899196 -0.000238192 0)
(0.899681 -0.000217006 0)
(0.900066 -0.000181568 0)
(0.900356 -0.000165354 0)
(0.900729 -7.41628e-05 0)
(1.00183 0.00540975 0)
(1.00525 0.00533899 0)
(1.00324 0.00409613 0)
(0.999548 0.00352017 0)
(0.99582 0.00305674 0)
(0.992079 0.00268296 0)
(0.988485 0.00242846 0)
(0.985151 0.00224989 0)
(0.982065 0.00211468 0)
(0.979191 0.00200957 0)
(0.9765 0.00192577 0)
(0.973965 0.0018564 0)
(0.971558 0.00179705 0)
(0.969255 0.00174492 0)
(0.967038 0.00169813 0)
(0.964888 0.0016554 0)
(0.962791 0.00161584 0)
(0.960737 0.00157882 0)
(0.958714 0.00154383 0)
(0.956713 0.00151054 0)
(0.954728 0.00147866 0)
(0.952752 0.001448 0)
(0.950779 0.00141835 0)
(0.948806 0.00138957 0)
(0.946828 0.0013615 0)
(0.944843 0.00133407 0)
(0.942848 0.00130719 0)
(0.940842 0.0012808 0)
(0.938822 0.00125483 0)
(0.936789 0.00122924 0)
(0.934741 0.00120398 0)
(0.93268 0.00117907 0)
(0.930605 0.00115447 0)
(0.928518 0.00113025 0)
(0.92642 0.00110632 0)
(0.924312 0.0010828 0)
(0.922195 0.00105948 0)
(0.920072 0.00103663 0)
(0.917945 0.00101416 0)
(0.915816 0.000992072 0)
(0.913687 0.000970284 0)
(0.911559 0.000949058 0)
(0.909436 0.000928145 0)
(0.907319 0.00090773 0)
(0.90521 0.00088768 0)
(0.903111 0.000868218 0)
(0.901023 0.000849054 0)
(0.898949 0.000830554 0)
(0.89689 0.000812249 0)
(0.894846 0.000794772 0)
(0.89282 0.000777412 0)
(0.890813 0.000761003 0)
(0.888826 0.000744516 0)
(0.886857 0.000729324 0)
(0.88491 0.000714189 0)
(0.882986 0.000700261 0)
(0.881082 0.000685232 0)
(0.879199 0.0006725 0)
(0.877339 0.000658841 0)
(0.875501 0.000647757 0)
(0.873686 0.000635549 0)
(0.871892 0.000624747 0)
(0.87012 0.000614818 0)
(0.86837 0.000606099 0)
(0.86665 0.000600178 0)
(0.864948 0.00058341 0)
(0.863282 0.000570713 0)
(0.861658 0.000537131 0)
(0.860006 0.000527545 0)
(0.858681 0.00036128 0)
(0.857722 0.000157816 0)
(0.855953 1.94439e-05 0)
(0.85816 -0.00120187 0)
(0.864645 -0.00318112 0)
(0.869632 -0.00427096 0)
(0.873405 -0.00430039 0)
(0.876818 -0.00378787 0)
(0.880249 -0.00320015 0)
(0.883565 -0.00268219 0)
(0.886669 -0.0022719 0)
(0.889522 -0.00195466 0)
(0.892137 -0.00168574 0)
(0.894512 -0.00146939 0)
(0.896644 -0.00127686 0)
(0.898541 -0.00111622 0)
(0.900233 -0.000972619 0)
(0.901723 -0.000852865 0)
(0.903043 -0.000743236 0)
(0.904191 -0.00065526 0)
(0.905194 -0.000575137 0)
(0.906088 -0.000507085 0)
(0.906879 -0.000447054 0)
(0.907572 -0.000404284 0)
(0.908151 -0.000364485 0)
(0.908662 -0.000322797 0)
(0.909119 -0.000271156 0)
(0.909527 -0.000245883 0)
(0.909836 -0.000204095 0)
(0.910067 -0.000185867 0)
(0.910359 -8.38993e-05 0)
(1.00188 0.00518659 0)
(1.006 0.00532038 0)
(1.00534 0.00423973 0)
(1.00297 0.00373504 0)
(1.00033 0.00329517 0)
(0.997454 0.00292254 0)
(0.994544 0.0026586 0)
(0.991754 0.00246664 0)
(0.989111 0.00231773 0)
(0.986612 0.00219998 0)
(0.984249 0.00210502 0)
(0.982012 0.00202602 0)
(0.979883 0.00195852 0)
(0.977848 0.00189956 0)
(0.975893 0.00184712 0)
(0.974005 0.00179975 0)
(0.972174 0.00175643 0)
(0.97039 0.0017164 0)
(0.968644 0.00167906 0)
(0.966928 0.00164399 0)
(0.965236 0.00161083 0)
(0.963562 0.00157932 0)
(0.961901 0.00154917 0)
(0.960248 0.00152022 0)
(0.958599 0.00149227 0)
(0.956951 0.00146521 0)
(0.9553 0.00143888 0)
(0.953644 0.00141321 0)
(0.951981 0.00138808 0)
(0.950309 0.00136344 0)
(0.948626 0.00133921 0)
(0.946931 0.00131536 0)
(0.945223 0.00129183 0)
(0.943502 0.00126867 0)
(0.941766 0.00124575 0)
(0.940018 0.00122319 0)
(0.938256 0.00120081 0)
(0.936481 0.00117876 0)
(0.934695 0.00115696 0)
(0.932897 0.00113545 0)
(0.931089 0.00111413 0)
(0.929272 0.00109325 0)
(0.927448 0.00107253 0)
(0.925618 0.00105216 0)
(0.923784 0.00103204 0)
(0.921945 0.0010124 0)
(0.920106 0.000992891 0)
(0.918267 0.00097391 0)
(0.916429 0.000955043 0)
(0.914594 0.000936914 0)
(0.912763 0.000918748 0)
(0.910938 0.000901462 0)
(0.909119 0.000884023 0)
(0.907309 0.00086784 0)
(0.905507 0.000851619 0)
(0.903716 0.000836549 0)
(0.901936 0.000820326 0)
(0.900165 0.000806379 0)
(0.898408 0.000791469 0)
(0.896663 0.000779141 0)
(0.894933 0.000765727 0)
(0.893214 0.000753651 0)
(0.89151 0.000742526 0)
(0.88982 0.000732464 0)
(0.888152 0.000725406 0)
(0.886496 0.000706443 0)
(0.884873 0.000691136 0)
(0.883275 0.000656315 0)
(0.881656 0.000635885 0)
(0.880389 0.000452688 0)
(0.879244 0.000253681 0)
(0.877497 -2.08957e-05 0)
(0.880643 -0.0015099 0)
(0.885633 -0.00352815 0)
(0.888402 -0.00450953 0)
(0.890221 -0.0044941 0)
(0.892041 -0.00398176 0)
(0.894158 -0.0034004 0)
(0.896435 -0.00288033 0)
(0.898693 -0.00245976 0)
(0.900845 -0.00212989 0)
(0.902871 -0.0018475 0)
(0.904753 -0.00161705 0)
(0.906475 -0.00140981 0)
(0.908029 -0.00123506 0)
(0.909426 -0.0010781 0)
(0.91066 -0.000946206 0)
(0.911757 -0.000825386 0)
(0.912717 -0.000726918 0)
(0.913555 -0.000638383 0)
(0.914306 -0.000563418 0)
(0.914974 -0.000496523 0)
(0.915558 -0.000446815 0)
(0.916042 -0.000400983 0)
(0.916465 -0.000354716 0)
(0.916844 -0.000299127 0)
(0.917186 -0.000270148 0)
(0.917433 -0.000222458 0)
(0.917616 -0.000202224 0)
(0.91784 -9.13701e-05 0)
(1.0018 0.00486316 0)
(1.0062 0.00519598 0)
(1.00645 0.00429895 0)
(1.00507 0.00387503 0)
(1.00332 0.00346973 0)
(1.00121 0.00311059 0)
(0.998924 0.00284786 0)
(0.996649 0.00265071 0)
(0.994434 0.00249415 0)
(0.992295 0.0023681 0)
(0.990243 0.00226499 0)
(0.98828 0.00217843 0)
(0.986399 0.00210413 0)
(0.984594 0.00203917 0)
(0.982856 0.00198152 0)
(0.981178 0.00192967 0)
(0.979553 0.00188253 0)
(0.977972 0.00183926 0)
(0.976431 0.00179923 0)
(0.974922 0.00176195 0)
(0.97344 0.00172701 0)
(0.971982 0.0016941 0)
(0.970541 0.00166291 0)
(0.969114 0.00163323 0)
(0.967698 0.00160482 0)
(0.966288 0.00157754 0)
(0.964883 0.00155122 0)
(0.963479 0.00152576 0)
(0.962073 0.00150102 0)
(0.960665 0.00147692 0)
(0.959251 0.00145334 0)
(0.95783 0.00143027 0)
(0.9564 0.0014076 0)
(0.954961 0.00138537 0)
(0.953511 0.00136343 0)
(0.952049 0.00134186 0)
(0.950575 0.00132052 0)
(0.949088 0.00129948 0)
(0.947589 0.00127866 0)
(0.946077 0.00125813 0)
(0.944552 0.00123774 0)
(0.943015 0.00121769 0)
(0.941466 0.00119775 0)
(0.939906 0.00117809 0)
(0.938335 0.00115859 0)
(0.936754 0.0011395 0)
(0.935165 0.00112043 0)
(0.933567 0.00110177 0)
(0.931963 0.00108316 0)
(0.930352 0.00106517 0)
(0.928738 0.00104702 0)
(0.927119 0.00102971 0)
(0.925498 0.00101217 0)
(0.923875 0.000995776 0)
(0.922251 0.000979262 0)
(0.920629 0.000963819 0)
(0.919008 0.000947181 0)
(0.917387 0.000932733 0)
(0.915771 0.0009173 0)
(0.914158 0.000904379 0)
(0.91255 0.000890423 0)
(0.910947 0.000877671 0)
(0.909349 0.000865902 0)
(0.907759 0.000855036 0)
(0.906182 0.000847242 0)
(0.904611 0.000826561 0)
(0.903066 0.000809203 0)
(0.901529 0.000773591 0)
(0.899988 0.000740789 0)
(0.898789 0.000548839 0)
(0.897487 0.000351032 0)
(0.895988 -9.14228e-05 0)
(0.899536 -0.00178424 0)
(0.902682 -0.0037428 0)
(0.903554 -0.00461069 0)
(0.903877 -0.00457403 0)
(0.904494 -0.00408362 0)
(0.905596 -0.00352604 0)
(0.90703 -0.00301841 0)
(0.908599 -0.00259854 0)
(0.910172 -0.0022642 0)
(0.911708 -0.00197515 0)
(0.913179 -0.00173628 0)
(0.914553 -0.00151915 0)
(0.915815 -0.00133395 0)
(0.916959 -0.00116649 0)
(0.917976 -0.00102473 0)
(0.918884 -0.000894944 0)
(0.919687 -0.000787744 0)
(0.920384 -0.000692174 0)
(0.921014 -0.00061156 0)
(0.921576 -0.000538923 0)
(0.922066 -0.000483109 0)
(0.922471 -0.000431835 0)
(0.92282 -0.000381616 0)
(0.923134 -0.000322866 0)
(0.92342 -0.000290334 0)
(0.923614 -0.000237212 0)
(0.923758 -0.000215178 0)
(0.923926 -9.69844e-05 0)
(1.00168 0.00452786 0)
(1.0061 0.00503674 0)
(1.00695 0.00430421 0)
(1.0063 0.00395614 0)
(1.00525 0.00359042 0)
(1.00378 0.00325263 0)
(1.00206 0.00299881 0)
(1.00026 0.00280306 0)
(0.99845 0.00264419 0)
(0.99666 0.002514 0)
(0.99491 0.00240591 0)
(0.993211 0.00231416 0)
(0.991566 0.0022348 0)
(0.989975 0.00216512 0)
(0.988436 0.00210313 0)
(0.986943 0.00204739 0)
(0.985495 0.00199678 0)
(0.984085 0.00195046 0)
(0.982711 0.00190776 0)
(0.981367 0.00186819 0)
(0.980051 0.0018313 0)
(0.978758 0.00179674 0)
(0.977484 0.0017642 0)
(0.976228 0.00173343 0)
(0.974984 0.00170419 0)
(0.973752 0.0016763 0)
(0.972528 0.00164958 0)
(0.971309 0.00162392 0)
(0.970094 0.00159913 0)
(0.968881 0.00157516 0)
(0.967666 0.00155185 0)
(0.96645 0.00152918 0)
(0.965229 0.00150702 0)
(0.964004 0.0014854 0)
(0.962771 0.00146416 0)
(0.961531 0.00144337 0)
(0.960282 0.00142288 0)
(0.959024 0.00140273 0)
(0.957755 0.00138282 0)
(0.956475 0.00136325 0)
(0.955183 0.00134382 0)
(0.95388 0.00132471 0)
(0.952565 0.00130572 0)
(0.951238 0.001287 0)
(0.949899 0.0012684 0)
(0.948549 0.00125015 0)
(0.947187 0.00123189 0)
(0.945813 0.001214 0)
(0.94443 0.00119611 0)
(0.943036 0.00117875 0)
(0.941632 0.00116117 0)
(0.94022 0.00114438 0)
(0.938799 0.0011273 0)
(0.937371 0.00111126 0)
(0.935937 0.00109507 0)
(0.934496 0.00107988 0)
(0.93305 0.00106345 0)
(0.931599 0.00104909 0)
(0.930143 0.00103376 0)
(0.928685 0.00102083 0)
(0.927225 0.00100695 0)
(0.925761 0.000994097 0)
(0.924298 0.000982254 0)
(0.922834 0.000971134 0)
(0.921376 0.000963035 0)
(0.919919 0.000941267 0)
(0.918479 0.000922639 0)
(0.917033 0.000886391 0)
(0.915605 0.000841068 0)
(0.914474 0.000648597 0)
(0.913073 0.000442369 0)
(0.911975 -0.000178025 0)
(0.915312 -0.00199252 0)
(0.916604 -0.00382781 0)
(0.91596 -0.00460028 0)
(0.915161 -0.00456636 0)
(0.91487 -0.0041139 0)
(0.915188 -0.0035915 0)
(0.915942 -0.00310664 0)
(0.916944 -0.00269616 0)
(0.91804 -0.00236395 0)
(0.919167 -0.00207374 0)
(0.920291 -0.00183104 0)
(0.92137 -0.00160799 0)
(0.922382 -0.00141538 0)
(0.923309 -0.00124 0)
(0.924142 -0.00109048 0)
(0.92489 -0.000953623 0)
(0.925558 -0.00083922 0)
(0.926137 -0.000737755 0)
(0.926661 -0.000652495 0)
(0.927131 -0.000575119 0)
(0.927542 -0.000513995 0)
(0.927879 -0.000457851 0)
(0.928165 -0.00040413 0)
(0.928424 -0.000342804 0)
(0.928661 -0.000307016 0)
(0.928809 -0.000248997 0)
(0.928923 -0.000225117 0)
(0.929043 -0.000100808 0)
(1.00154 0.00420806 0)
(1.00583 0.00486132 0)
(1.00706 0.0042702 0)
(1.00694 0.0039914 0)
(1.00643 0.00366678 0)
(1.00549 0.00335458 0)
(1.00425 0.00311466 0)
(1.00288 0.00292525 0)
(1.00145 0.00276843 0)
(0.999989 0.00263776 0)
(0.99853 0.00252768 0)
(0.997088 0.00243314 0)
(0.995673 0.00235063 0)
(0.994289 0.00227769 0)
(0.992938 0.00221251 0)
(0.991621 0.00215373 0)
(0.990336 0.00210029 0)
(0.989081 0.00205137 0)
(0.987855 0.00200632 0)
(0.986655 0.00196464 0)
(0.985479 0.00192587 0)
(0.984324 0.00188967 0)
(0.983187 0.0018557 0)
(0.982068 0.00182372 0)
(0.980963 0.00179346 0)
(0.97987 0.00176475 0)
(0.978787 0.00173738 0)
(0.977712 0.00171123 0)
(0.976643 0.00168612 0)
(0.975579 0.00166196 0)
(0.974517 0.0016386 0)
(0.973457 0.00161601 0)
(0.972396 0.00159405 0)
(0.971333 0.00157274 0)
(0.970268 0.0015519 0)
(0.969198 0.00153159 0)
(0.968124 0.00151167 0)
(0.967042 0.00149217 0)
(0.965954 0.00147296 0)
(0.964858 0.00145416 0)
(0.963753 0.00143554 0)
(0.962639 0.00141726 0)
(0.961515 0.00139914 0)
(0.96038 0.00138133 0)
(0.959235 0.00136361 0)
(0.958079 0.00134625 0)
(0.956912 0.00132891 0)
(0.955734 0.00131192 0)
(0.954544 0.00129489 0)
(0.953344 0.00127837 0)
(0.952132 0.00126162 0)
(0.95091 0.00124562 0)
(0.949677 0.00122932 0)
(0.948434 0.00121398 0)
(0.947181 0.00119849 0)
(0.945919 0.00118392 0)
(0.944647 0.00116811 0)
(0.943366 0.00115426 0)
(0.942076 0.00113951 0)
(0.940779 0.00112702 0)
(0.939476 0.00111367 0)
(0.938164 0.00110119 0)
(0.936846 0.00108974 0)
(0.935523 0.00107883 0)
(0.934201 0.0010708 0)
(0.932876 0.00104861 0)
(0.931558 0.0010294 0)
(0.930226 0.000992398 0)
(0.928931 0.000935753 0)
(0.927862 0.000749362 0)
(0.92644 0.000521913 0)
(0.925792 -0.000263364 0)
(0.928398 -0.00211522 0)
(0.928063 -0.0037973 0)
(0.926265 -0.00450183 0)
(0.924634 -0.00449113 0)
(0.923655 -0.004088 0)
(0.923363 -0.00360823 0)
(0.923571 -0.00315321 0)
(0.9241 -0.00275887 0)
(0.924798 -0.00243424 0)
(0.925583 -0.0021474 0)
(0.926414 -0.00190463 0)
(0.927241 -0.00167893 0)
(0.928037 -0.00148152 0)
(0.928776 -0.0013005 0)
(0.929453 -0.00114515 0)
(0.930065 -0.00100283 0)
(0.930616 -0.000882559 0)
(0.931095 -0.000776166 0)
(0.931528 -0.000687063 0)
(0.931918 -0.000605793 0)
(0.932259 -0.000540094 0)
(0.932537 -0.000479618 0)
(0.932769 -0.000422882 0)
(0.93298 -0.000359424 0)
(0.933173 -0.000320555 0)
(0.933283 -0.000258209 0)
(0.933373 -0.000232578 0)
(0.933452 -0.000103165 0)
(1.00139 0.00390595 0)
(1.00548 0.00467629 0)
(1.00694 0.00420827 0)
(1.00719 0.00399196 0)
(1.00709 0.0037075 0)
(1.00656 0.00342246 0)
(1.00573 0.00319933 0)
(1.00474 0.00301959 0)
(1.00365 0.0028681 0)
(1.00249 0.00273994 0)
(1.00131 0.00263048 0)
(1.00011 0.00253535 0)
(0.99892 0.00245154 0)
(0.997737 0.00237687 0)
(0.996569 0.00230973 0)
(0.995421 0.00224891 0)
(0.994292 0.00219344 0)
(0.993184 0.00214256 0)
(0.992097 0.00209564 0)
(0.991029 0.0020522 0)
(0.98998 0.00201183 0)
(0.988948 0.00197416 0)
(0.987932 0.00193888 0)
(0.986931 0.00190572 0)
(0.985943 0.00187444 0)
(0.984966 0.00184483 0)
(0.984 0.00181672 0)
(0.983042 0.00178995 0)
(0.982092 0.00176435 0)
(0.981147 0.00173982 0)
(0.980207 0.00171621 0)
(0.97927 0.00169348 0)
(0.978335 0.00167149 0)
(0.977401 0.00165023 0)
(0.976466 0.00162955 0)
(0.97553 0.00160948 0)
(0.974592 0.00158988 0)
(0.97365 0.00157079 0)
(0.972704 0.00155204 0)
(0.971753 0.00153377 0)
(0.970796 0.00151575 0)
(0.969833 0.00149812 0)
(0.968862 0.00148069 0)
(0.967883 0.00146362 0)
(0.966895 0.00144668 0)
(0.965899 0.00143009 0)
(0.964894 0.00141359 0)
(0.963879 0.00139745 0)
(0.962853 0.00138127 0)
(0.961818 0.0013656 0)
(0.960772 0.00134973 0)
(0.959715 0.00133459 0)
(0.958648 0.00131916 0)
(0.95757 0.00130465 0)
(0.956481 0.00129002 0)
(0.955382 0.00127626 0)
(0.954272 0.00126129 0)
(0.953152 0.00124819 0)
(0.95202 0.00123428 0)
(0.950879 0.00122248 0)
(0.949728 0.00120996 0)
(0.948567 0.00119817 0)
(0.947397 0.00118744 0)
(0.946218 0.00117708 0)
(0.945036 0.00116936 0)
(0.943848 0.00114735 0)
(0.942658 0.00112805 0)
(0.941454 0.00109006 0)
(0.940298 0.00102448 0)
(0.939285 0.000847968 0)
(0.937922 0.000586955 0)
(0.937667 -0.000330875 0)
(0.939233 -0.00214608 0)
(0.937588 -0.00367115 0)
(0.93495 -0.00433562 0)
(0.932705 -0.0043635 0)
(0.931201 -0.00401733 0)
(0.930427 -0.00358512 0)
(0.930194 -0.00316468 0)
(0.93033 -0.00279169 0)
(0.930691 -0.00247915 0)
(0.931187 -0.00219944 0)
(0.931766 -0.00195971 0)
(0.932376 -0.00173411 0)
(0.932987 -0.00153422 0)
(0.933566 -0.00134962 0)
(0.934107 -0.00119011 0)
(0.934602 -0.00104371 0)
(0.935051 -0.000918756 0)
(0.935444 -0.000808293 0)
(0.935798 -0.000715981 0)
(0.936117 -0.000631522 0)
(0.936397 -0.000561921 0)
(0.936623 -0.000497634 0)
(0.936809 -0.000438251 0)
(0.936978 -0.000373015 0)
(0.937133 -0.000331351 0)
(0.93721 -0.000265267 0)
(0.937279 -0.000237834 0)
(0.937323 -0.000104124 0)
(1.00126 0.00362134 0)
(1.0051 0.0044876 0)
(1.00668 0.00412777 0)
(1.00718 0.003967 0)
(1.00738 0.00372027 0)
(1.00718 0.00346218 0)
(1.00668 0.00325705 0)
(1.006 0.00308897 0)
(1.00521 0.00294506 0)
(1.00433 0.00282164 0)
(1.0034 0.0027149 0)
(1.00244 0.00262108 0)
(1.00146 0.00253761 0)
(1.00047 0.00246263 0)
(0.999478 0.00239476 0)
(0.998493 0.00233293 0)
(0.997517 0.00227629 0)
(0.996551 0.00222415 0)
(0.995596 0.00217595 0)
(0.994654 0.00213126 0)
(0.993725 0.00208966 0)
(0.992808 0.00205083 0)
(0.991903 0.00201446 0)
(0.991009 0.0019803 0)
(0.990126 0.0019481 0)
(0.989253 0.00191768 0)
(0.988388 0.00188884 0)
(0.987531 0.00186143 0)
(0.986682 0.00183529 0)
(0.985838 0.00181032 0)
(0.984999 0.00178636 0)
(0.984164 0.00176337 0)
(0.983332 0.0017412 0)
(0.982503 0.00171984 0)
(0.981674 0.00169915 0)
(0.980846 0.00167914 0)
(0.980018 0.00165967 0)
(0.979188 0.00164079 0)
(0.978356 0.00162232 0)
(0.977521 0.00160438 0)
(0.976682 0.00158677 0)
(0.975839 0.00156958 0)
(0.974991 0.00155266 0)
(0.974138 0.00153614 0)
(0.973278 0.00151981 0)
(0.972412 0.00150385 0)
(0.971538 0.00148803 0)
(0.970657 0.0014726 0)
(0.969767 0.00145717 0)
(0.968869 0.00144225 0)
(0.967962 0.0014272 0)
(0.967046 0.00141286 0)
(0.96612 0.00139827 0)
(0.965184 0.00138459 0)
(0.964238 0.00137084 0)
(0.963282 0.0013579 0)
(0.962316 0.00134384 0)
(0.961338 0.00133156 0)
(0.96035 0.00131861 0)
(0.95935 0.00130763 0)
(0.958341 0.00129606 0)
(0.957321 0.00128514 0)
(0.95629 0.00127531 0)
(0.955248 0.00126565 0)
(0.954202 0.00125841 0)
(0.953148 0.00123701 0)
(0.952086 0.00121787 0)
(0.951012 0.00117869 0)
(0.949991 0.00110694 0)
(0.949033 0.00094141 0)
(0.947792 0.000638254 0)
(0.947794 -0.000367854 0)
(0.948241 -0.00208958 0)
(0.945605 -0.0034699 0)
(0.942374 -0.00411778 0)
(0.939677 -0.00419477 0)
(0.937767 -0.00391039 0)
(0.936609 -0.00352893 0)
(0.936015 -0.00314636 0)
(0.935824 -0.0027986 0)
(0.935898 -0.00250191 0)
(0.936145 -0.0022325 0)
(0.936507 -0.00199843 0)
(0.936929 -0.00177535 0)
(0.937378 -0.00157503 0)
(0.937819 -0.00138865 0)
(0.938242 -0.00122649 0)
(0.938635 -0.00107716 0)
(0.938995 -0.000948585 0)
(0.939312 -0.000834858 0)